
                                 *****************
                                 * O   R   C   A *
                                 *****************

                                            #,                                       
                                            ###                                      
                                            ####                                     
                                            #####                                    
                                            ######                                   
                                           ########,                                 
                                     ,,################,,,,,                         
                               ,,#################################,,                 
                          ,,##########################################,,             
                       ,#########################################, ''#####,          
                    ,#############################################,,   '####,        
                  ,##################################################,,,,####,       
                ,###########''''           ''''###############################       
              ,#####''   ,,,,##########,,,,          '''####'''          '####       
            ,##' ,,,,###########################,,,                        '##       
           ' ,,###''''                  '''############,,,                           
         ,,##''                                '''############,,,,        ,,,,,,###''
      ,#''                                            '''#######################'''  
     '                                                          ''''####''''         
             ,#######,   #######,   ,#######,      ##                                
            ,#'     '#,  ##    ##  ,#'     '#,    #''#        ######   ,####,        
            ##       ##  ##   ,#'  ##            #'  '#       #        #'  '#        
            ##       ##  #######   ##           ,######,      #####,   #    #        
            '#,     ,#'  ##    ##  '#,     ,#' ,#      #,         ##   #,  ,#        
             '#######'   ##     ##  '#######'  #'      '#     #####' # '####'        



                  #######################################################
                  #                        -***-                        #
                  #          Department of theory and spectroscopy      #
                  #    Directorship and core code : Frank Neese         #
                  #        Max Planck Institute fuer Kohlenforschung    #
                  #                Kaiser Wilhelm Platz 1               #
                  #                 D-45470 Muelheim/Ruhr               #
                  #                      Germany                        #
                  #                                                     #
                  #                  All rights reserved                #
                  #                        -***-                        #
                  #######################################################


                         Program Version 5.0.3 -  RELEASE  -


 With contributions from (in alphabetic order):
   Daniel Aravena         : Magnetic Suceptibility
   Michael Atanasov       : Ab Initio Ligand Field Theory (pilot matlab implementation)
   Alexander A. Auer      : GIAO ZORA, VPT2 properties, NMR spectrum
   Ute Becker             : Parallelization
   Giovanni Bistoni       : ED, misc. LED, open-shell LED, HFLD
   Martin Brehm           : Molecular dynamics
   Dmytro Bykov           : SCF Hessian
   Vijay G. Chilkuri      : MRCI spin determinant printing, contributions to CSF-ICE
   Dipayan Datta          : RHF DLPNO-CCSD density
   Achintya Kumar Dutta   : EOM-CC, STEOM-CC
   Dmitry Ganyushin       : Spin-Orbit,Spin-Spin,Magnetic field MRCI
   Miquel Garcia          : C-PCM and meta-GGA Hessian, CC/C-PCM, Gaussian charge scheme
   Yang Guo               : DLPNO-NEVPT2, F12-NEVPT2, CIM, IAO-localization
   Andreas Hansen         : Spin unrestricted coupled pair/coupled cluster methods
   Benjamin Helmich-Paris : MC-RPA, TRAH-SCF, COSX integrals
   Lee Huntington         : MR-EOM, pCC
   Robert Izsak           : Overlap fitted RIJCOSX, COSX-SCS-MP3, EOM
   Marcus Kettner         : VPT2
   Christian Kollmar      : KDIIS, OOCD, Brueckner-CCSD(T), CCSD density, CASPT2, CASPT2-K
   Simone Kossmann        : Meta GGA functionals, TD-DFT gradient, OOMP2, MP2 Hessian
   Martin Krupicka        : Initial AUTO-CI
   Lucas Lang             : DCDCAS
   Marvin Lechner         : AUTO-CI (C++ implementation), FIC-MRCC
   Dagmar Lenk            : GEPOL surface, SMD
   Dimitrios Liakos       : Extrapolation schemes; Compound Job, initial MDCI parallelization
   Dimitrios Manganas     : Further ROCIS development; embedding schemes
   Dimitrios Pantazis     : SARC Basis sets
   Anastasios Papadopoulos: AUTO-CI, single reference methods and gradients
   Taras Petrenko         : DFT Hessian,TD-DFT gradient, ASA, ECA, R-Raman, ABS, FL, XAS/XES, NRVS
   Peter Pinski           : DLPNO-MP2, DLPNO-MP2 Gradient
   Christoph Reimann      : Effective Core Potentials
   Marius Retegan         : Local ZFS, SOC
   Christoph Riplinger    : Optimizer, TS searches, QM/MM, DLPNO-CCSD(T), (RO)-DLPNO pert. Triples
   Tobias Risthaus        : Range-separated hybrids, TD-DFT gradient, RPA, STAB
   Michael Roemelt        : Original ROCIS implementation
   Masaaki Saitow         : Open-shell DLPNO-CCSD energy and density
   Barbara Sandhoefer     : DKH picture change effects
   Avijit Sen             : IP-ROCIS
   Kantharuban Sivalingam : CASSCF convergence, NEVPT2, FIC-MRCI
   Bernardo de Souza      : ESD, SOC TD-DFT
   Georgi Stoychev        : AutoAux, RI-MP2 NMR, DLPNO-MP2 response
   Willem Van den Heuvel  : Paramagnetic NMR
   Boris Wezisla          : Elementary symmetry handling
   Frank Wennmohs         : Technical directorship


 We gratefully acknowledge several colleagues who have allowed us to
 interface, adapt or use parts of their codes:
   Stefan Grimme, W. Hujo, H. Kruse, P. Pracht,  : VdW corrections, initial TS optimization,
                  C. Bannwarth, S. Ehlert          DFT functionals, gCP, sTDA/sTD-DF
   Ed Valeev, F. Pavosevic, A. Kumar             : LibInt (2-el integral package), F12 methods
   Garnet Chan, S. Sharma, J. Yang, R. Olivares  : DMRG
   Ulf Ekstrom                                   : XCFun DFT Library
   Mihaly Kallay                                 : mrcc  (arbitrary order and MRCC methods)
   Jiri Pittner, Ondrej Demel                    : Mk-CCSD
   Frank Weinhold                                : gennbo (NPA and NBO analysis)
   Christopher J. Cramer and Donald G. Truhlar   : smd solvation model
   Lars Goerigk                                  : TD-DFT with DH, B97 family of functionals
   V. Asgeirsson, H. Jonsson                     : NEB implementation
   FAccTs GmbH                                   : IRC, NEB, NEB-TS, DLPNO-Multilevel, CI-OPT
                                                   MM, QMMM, 2- and 3-layer-ONIOM, Crystal-QMMM,
                                                   LR-CPCM, SF, NACMEs, symmetry and pop. for TD-DFT,
                                                   nearIR, NL-DFT gradient (VV10), updates on ESD,
                                                   ML-optimized integration grids
   S Lehtola, MJT Oliveira, MAL Marques          : LibXC Library
   Liviu Ungur et al                             : ANISO software


 Your calculation uses the libint2 library for the computation of 2-el integrals
 For citations please refer to: http://libint.valeyev.net

 Your ORCA version has been built with support for libXC version: 5.1.0
 For citations please refer to: https://tddft.org/programs/libxc/

 This ORCA versions uses:
   CBLAS   interface :  Fast vector & matrix operations
   LAPACKE interface :  Fast linear algebra routines
   SCALAPACK package :  Parallel linear algebra routines
   Shared memory     :  Shared parallel matrices
   BLAS/LAPACK       :  OpenBLAS 0.3.15  USE64BITINT DYNAMIC_ARCH NO_AFFINITY SkylakeX SINGLE_THREADED
        Core in use  :  SkylakeX
   Copyright (c) 2011-2014, The OpenBLAS Project


================================================================================

----- Orbital basis set information -----
Your calculation utilizes the basis: def2-SVP
   F. Weigend and R. Ahlrichs, Phys. Chem. Chem. Phys. 7, 3297 (2005).

The basis set includes element-specific modifications.

Your calculation utilizes the basis: aug-cc-pVTZ 
    H, B-Ne : Obtained from the ccRepo (grant-hill.group.shef.ac.uk/ccrepo) Feb. 2017
              R. A. Kendall, T. H. Dunning, Jr., R. J. Harrison, J. Chem. Phys. 96, 6796 (1992)
         He : Obtained from the ccRepo (grant-hill.group.shef.ac.uk/ccrepo) Feb. 2017
              D. E. Woon, T. H. Dunning, Jr., J. Chem. Phys. 100, 2975 (1994)
  Li-Be, Na : Obtained from the ccRepo (grant-hill.group.shef.ac.uk/ccrepo) Feb. 2017
              B. P. Prascher, D. E. Woon, K. A. Peterson, T. H. Dunning, Jr., A. K. Wilson, Theor. Chem. Acc. 128, 69 (2011)
         Mg : Obtained from the Peterson Research Group Website (tyr0.chem.wsu.edu/~kipeters) Feb. 2017
              B. P. Prascher, D. E. Woon, K. A. Peterson, T. H. Dunning, Jr., A. K. Wilson, Theor. Chem. Acc. 128, 69 (2011)
      Al-Ar : Obtained from the ccRepo (grant-hill.group.shef.ac.uk/ccrepo) Feb. 2017
              D. E. Woon, T. H. Dunning, Jr., J. Chem. Phys. 98, 1358 (1993)
      Sc-Zn : Obtained from the ccRepo (grant-hill.group.shef.ac.uk/ccrepo) Feb. 2017
              N. B. Balabanov, K. A. Peterson, J. Chem. Phys. 123, 064107 (2005)
              N. B. Balabanov, K. A. Peterson, J. Chem. Phys. 125, 074110 (2006)
      Ga-Kr : Obtained from the ccRepo (grant-hill.group.shef.ac.uk/ccrepo) Feb. 2017
              A. K. Wilson, D. E. Woon, K. A. Peterson, T. H. Dunning, Jr., J. Chem. Phys. 110, 7667 (1999)
     Ag, Au : Obtained from the Peterson Research Group Website (tyr0.chem.wsu.edu/~kipeters) Feb. 2017
              K. A. Peterson, C. Puzzarini, Theor. Chem. Acc. 114, 283 (2005)

Your calculation utilizes the basis: cc-pVTZ 
       H, B-Ne : Obtained from the ccRepo (grant-hill.group.shef.ac.uk/ccrepo) Feb. 2017
                 T. H. Dunning, Jr., J. Chem. Phys. 90, 1007 (1989)
            He : Obtained from the ccRepo (grant-hill.group.shef.ac.uk/ccrepo) Feb. 2017
                 D. E. Woon, T. H. Dunning, Jr., J. Chem. Phys. 100, 2975 (1994)
  Li-Be, Na-Mg : Obtained from the ccRepo (grant-hill.group.shef.ac.uk/ccrepo) Feb. 2017
                 B. P. Prascher, D. E. Woon, K. A. Peterson, T. H. Dunning, Jr., A. K. Wilson, Theor. Chem. Acc. 128, 69 (2011)
         Al-Ar : Obtained from the ccRepo (grant-hill.group.shef.ac.uk/ccrepo) Feb. 2017
                 D. E. Woon, T. H. Dunning, Jr., J. Chem. Phys. 98, 1358 (1993)
            Ca : Obtained from the Peterson Research Group Website (tyr0.chem.wsu.edu/~kipeters) Feb. 2017
                 J. Koput, K. A. Peterson, J. Phys. Chem. 106, 9595 (2002)
         Sc-Zn : Obtained from the ccRepo (grant-hill.group.shef.ac.uk/ccrepo) Feb. 2017
                 N. B. Balabanov, K. A. Peterson, J. Chem. Phys. 123, 064107 (2005)
                 N. B. Balabanov, K. A. Peterson, J. Chem. Phys. 125, 074110 (2006)
         Ga-Kr : Obtained from the ccRepo (grant-hill.group.shef.ac.uk/ccrepo) Feb. 2017
                 A. K. Wilson, D. E. Woon, K. A. Peterson, T. H. Dunning, Jr., J. Chem. Phys. 110, 7667 (1999)
             Y : Obtained from the ccRepo (grant-hill.group.shef.ac.uk/ccrepo) Feb. 2017
                 K. A. Peterson, D. Figgen, M. Dolg, H. Stoll, J. Chem. Phys. 126, 124101 (2007)
        Ag, Au : Obtained from the Peterson Research Group Website (tyr0.chem.wsu.edu/~kipeters) Feb. 2017
                 K. A. Peterson, C. Puzzarini, Theor. Chem. Acc. 114, 283 (2005)

----- AuxJ basis set information -----
Your calculation utilizes the auxiliary basis: def2/J
   F. Weigend, Phys. Chem. Chem. Phys. 8, 1057 (2006).

================================================================================
                                        WARNINGS
                       Please study these warnings very carefully!
================================================================================

WARNING: The globally-selected AuxJ basis set is optimized for use with ECPs
         Make sure a suitable alternative is explicitly given all heavy elements (Z>36)

INFO   : the flag for use of the SHARK integral package has been found!

================================================================================
                                       INPUT FILE
================================================================================
NAME = final002.orca.inp
|  1> ! NoMOPrint PrintBasis #MINIPRINT SMALLPRINT LARGEPRINT
|  2> ! ALLPOP XYZFILE
|  3> #! BP86 3-21G   TightSCF
|  4> ! ENGRAD
|  5> ! B3LYP NormalPNO PModel #DecontractAux
|  6> #! VerySlowConv 
|  7>  %maxcore 5000
|  8>  %scf  maxiter   500  end 
|  9> 
| 10> %pal
| 11>     nprocs 32
| 12> end
| 13> 
| 14> %basis
| 15>     NewGTO O    # New basis for oxygen
| 16>         "aug-cc-pVTZ"
| 17>     end
| 18>     NewGTO C    # New basis for carbon
| 19>         "aug-cc-pVTZ"
| 20>     end
| 21>     NewGTO H    # New basis for hydrogen
| 22>         "cc-pVTZ"
| 23>     end
| 24> end
| 25> 
| 26> * xyz 0   1
| 27>   C  9.52  11.85  11.89  #1
| 28>   H  10.26  12.22  12.6  #2
| 29>   H  8.49  12.01  12.24  #3
| 30>   C  9.69  10.33  11.81  #4
| 31>   H  9.25  10.01  12.8  #5
| 32>   H  9  9.88  11.02  #6
| 33>   C  11.09  9.7  11.51  #7
| 34>   H  11.05  8.59  11.59  #8
| 35>   H  11.79  10.07  12.26  #9
| 36>   C  11.71  10.01  10.1  #10
| 37>   H  11.66  11.09  10.12  #11
| 38>   H  11.08  9.75  9.21  #12
| 39>   O  13.09  9.47  9.9  #13
| 40>   H  13.49  9.91  9.18  #14
| 41>   O  9.61  12.46  10.64  #15
| 42>   H  9.47  13.39  10.81  #16
| 43>   O  12.97  11.8  13.15  #17
| 44>   H  13.15  11.92  12.23  #18
| 45>   H  13.4  10.97  13.51  #19
| 46>   O  6.93  13.73  13.59  #20
| 47>   H  7.24  13.28  14.34  #21
| 48>   H  6.66  13.03  12.99  #22
| 49>   O  8.86  7.1  9.79  #23
| 50>   H  8.73  6.14  9.91  #24
| 51>   H  9.85  7.29  9.75  #25
| 52>   O  12.86  7.17  14.16  #26
| 53>   H  11.97  7.46  13.82  #27
| 54>   H  13.35  8  14.2  #28
| 55>   O  15.07  8.67  11.24  #29
| 56>   H  15.62  8.02  10.86  #30
| 57>   H  14.31  8.77  10.68  #31
| 58>   O  10.57  9.86  6.64  #32
| 59>   H  10.46  10.64  7.21  #33
| 60>   H  9.67  9.87  6.49  #34
| 61>   O  14.2  5.81  9.65  #35
| 62>   H  14.5  5.74  10.57  #36
| 63>   H  13.75  4.95  9.48  #37
| 64>   O  7.81  4.49  10.03  #38
| 65>   H  8.41  3.74  10.06  #39
| 66>   H  7.01  4.14  10.41  #40
| 67>   O  7.44  8  14.01  #41
| 68>   H  7.66  8.21  14.91  #42
| 69>   H  8.24  7.59  13.59  #43
| 70>   O  10.44  6.29  6.93  #44
| 71>   H  9.53  6.16  6.66  #45
| 72>   H  10.47  6.39  7.89  #46
| 73>   O  5.84  12.38  11.18  #47
| 74>   H  6.04  11.49  11.05  #48
| 75>   H  5  12.4  11.67  #49
| 76>   O  8.66  12.9  15.73  #50
| 77>   H  9.31  12.18  15.49  #51
| 78>   H  9.22  13.64  16.01  #52
| 79>   O  5.78  15.87  14.45  #53
| 80>   H  6.21  15  14.32  #54
| 81>   H  6.28  16.22  15.19  #55
| 82>   O  5.92  9.37  12.15  #56
| 83>   H  6.28  8.85  12.89  #57
| 84>   H  6.52  9.05  11.5  #58
| 85>   O  14.44  5.65  12.44  #59
| 86>   H  15.42  5.46  12.69  #60
| 87>   H  14.18  6.33  13.08  #61
| 88>   O  14.34  9.57  13.66  #62
| 89>   H  14.74  9.08  12.91  #63
| 90>   H  14.95  9.68  14.41  #64
| 91>   O  9.07  15.38  13.19  #65
| 92>   H  8.36  14.78  13.58  #66
| 93>   H  9.94  15.07  13.5  #67
| 94>   O  6.47  8.25  9.76  #68
| 95>   H  7.25  7.74  9.58  #69
| 96>   H  5.7  7.79  9.5  #70
| 97>   O  11.95  14.87  13.12  #71
| 98>   H  12.1  13.94  12.97  #72
| 99>   H  12.52  14.95  13.91  #73
|100>   O  15.9  12.88  13.19  #74
|101>   H  15.19  12.24  13.06  #75
|102>   H  16.74  12.38  13.33  #76
|103>   O  10.43  12.37  7.9  #77
|104>   H  9.88  13.08  7.57  #78
|105>   H  10.34  12.46  8.88  #79
|106>   O  11.05  11.07  15.13  #80
|107>   H  11.65  10.98  14.37  #81
|108>   H  10.81  10.2  15.53  #82
|109>   O  13.75  12.29  8.16  #83
|110>   H  14.43  12.28  7.47  #84
|111>   H  12.91  12.71  7.79  #85
|112>   O  11.43  6.7  9.63  #86
|113>   H  12.36  6.88  9.43  #87
|114>   H  11.39  6.02  10.28  #88
|115>   O  13.58  12.75  10.9  #89
|116>   H  14.34  13.39  10.82  #90
|117>   H  13.46  12.54  9.95  #91
|118>   O  7.3  13.58  9.25  #92
|119>   H  6.67  13.51  9.99  #93
|120>   H  8.21  13.41  9.59  #94
|121>   O  16.1  11.27  9.99  #95
|122>   H  15.27  11.75  10.28  #96
|123>   H  15.77  10.37  10.13  #97
|124>   O  6.42  5.34  7.73  #98
|125>   H  6.35  4.47  7.33  #99
|126>   H  7.03  5.35  8.5  #100
|127>   O  12.82  4.47  15.36  #101
|128>   H  13.14  5.17  14.74  #102
|129>   H  13.47  4.48  16.07  #103
|130>   O  10.06  6.76  13.55  #104
|131>   H  9.9  6.18  14.31  #105
|132>   H  10.22  6.09  12.79  #106
|133>   O  17.03  7.43  9.63  #107
|134>   H  17.55  6.63  9.72  #108
|135>   H  16.62  7.37  8.74  #109
|136>   O  9.68  15.09  10.41  #110
|137>   H  9.39  15.32  11.27  #111
|138>   H  10.58  15.39  10.37  #112
|139>   Q  0.6645  12.39$  6.09$  4.02$
|140>   Q  0.6645  11.6$  6.3$  5.16$
|141>   Q  -1.3290  11.71$  5.95$  4.46$
|142>   Q  0.6645  1.99$  10.98$  16.06$
|143>   Q  0.6645  2.34$  9.54$  15.51$
|144>   Q  -1.3290  1.89$  10.24$  15.59$
|145>   Q  0.6645  19.52$  9.14$  11.8$
|146>   Q  0.6645  19.69$  8.25$  12.97$
|147>   Q  -1.3290  19.72$  8.96$  12.58$
|148>   Q  0.6645  11.91$  17.56$  17.49$
|149>   Q  0.6645  10.46$  17.66$  16.91$
|150>   Q  -1.3290  11.31$  17.88$  17.01$
|151>   Q  0.6645  6.91$  8.96$  4.8$
|152>   Q  0.6645  5.41$  9.1$  5.15$
|153>   Q  -1.3290  6.07$  8.96$  4.65$
|154>   Q  0.6645  9.25$  1.8$  9.14$
|155>   Q  0.6645  10.39$  2.89$  8.78$
|156>   Q  -1.3290  9.77$  2.51$  9.24$
|157>   Q  0.6645  10.28$  14.6$  5.58$
|158>   Q  0.6645  8.82$  14.07$  5.54$
|159>   Q  -1.3290  9.54$  14.37$  5.91$
|160>   Q  0.6645  12.22$  8.4$  6.41$
|161>   Q  0.6645  13.03$  8.45$  5.03$
|162>   Q  -1.3290  12.85$  8.2$  5.86$
|163>   Q  0.6645  3.26$  8.92$  5.6$
|164>   Q  0.6645  3.86$  9.94$  6.64$
|165>   Q  -1.3290  3.8$  9.2$  6.19$
|166>   Q  0.6645  4.68$  7.24$  2.2$
|167>   Q  0.6645  5.27$  7.63$  3.67$
|168>   Q  -1.3290  4.89$  7.12$  3.05$
|169>   Q  0.6645  18.68$  12.33$  8.16$
|170>   Q  0.6645  17.73$  11.79$  9.22$
|171>   Q  -1.3290  18.51$  12.01$  8.92$
|172>   Q  0.6645  8.19$  16.64$  9.8$
|173>   Q  0.6645  6.66$  16.77$  9.81$
|174>   Q  -1.3290  7.44$  17$  9.98$
|175>   Q  0.6645  10.84$  10.62$  20.86$
|176>   Q  0.6645  10.17$  10.63$  19.5$
|177>   Q  -1.3290  10.21$  10.47$  20.33$
|178>   Q  0.6645  4.89$  20.73$  11.44$
|179>   Q  0.6645  5.51$  21.68$  10.37$
|180>   Q  -1.3290  5.49$  21.28$  11.12$
|181>   Q  0.6645  10.27$  18.63$  5.18$
|182>   Q  0.6645  10.73$  17.51$  6.11$
|183>   Q  -1.3290  10.8$  17.98$  5.43$
|184>   Q  0.6645  17.57$  4.44$  12.27$
|185>   Q  0.6645  17.19$  3.96$  13.72$
|186>   Q  -1.3290  17.08$  4.34$  12.95$
|187>   Q  0.6645  18.14$  6.94$  16.3$
|188>   Q  0.6645  16.87$  7.81$  16.62$
|189>   Q  -1.3290  17.57$  7.34$  16.79$
|190>   Q  0.6645  10.23$  7.88$  17.38$
|191>   Q  0.6645  10.72$  7.25$  16.12$
|192>   Q  -1.3290  10.49$  7.88$  16.58$
|193>   Q  0.6645  18.5$  10.43$  16.07$
|194>   Q  0.6645  18.42$  9.14$  16.79$
|195>   Q  -1.3290  18.83$  9.84$  16.52$
|196>   Q  0.6645  14.4$  7.27$  7.11$
|197>   Q  0.6645  15$  6.27$  8.1$
|198>   Q  -1.3290  15$  6.74$  7.37$
|199>   Q  0.6645  14.5$  1.49$  16.17$
|200>   Q  0.6645  14.63$  1.94$  14.62$
|201>   Q  -1.3290  14.92$  1.62$  15.4$
|202>   Q  0.6645  4.88$  11.63$  7.18$
|203>   Q  0.6645  4.09$  12.08$  5.99$
|204>   Q  -1.3290  4.2$  11.71$  6.71$
|205>   Q  0.6645  5.86$  15.88$  6.91$
|206>   Q  0.6645  6.09$  14.67$  7.7$
|207>   Q  -1.3290  5.6$  15.25$  7.38$
|208>   Q  0.6645  18.15$  6.88$  6.66$
|209>   Q  0.6645  16.65$  7.44$  6.54$
|210>   Q  -1.3290  17.51$  7.47$  6.52$
|211>   Q  0.6645  12.77$  16.6$  3.25$
|212>   Q  0.6645  11.29$  16.75$  3.77$
|213>   Q  -1.3290  11.91$  16.45$  3.27$
|214>   Q  0.6645  18.26$  8.05$  4.85$
|215>   Q  0.6645  19.05$  8.52$  3.51$
|216>   Q  -1.3290  18.67$  7.96$  4.07$
|217>   Q  0.6645  11.78$  -0.47$  13.94$
|218>   Q  0.6645  13.19$  -0.17$  14.05$
|219>   Q  -1.3290  12.41$  0.02$  14.17$
|220>   Q  0.6645  18.94$  13.1$  10.39$
|221>   Q  0.6645  19.05$  13$  11.94$
|222>   Q  -1.3290  19.03$  13.39$  11.17$
|223>   Q  0.6645  21.98$  12.07$  13.53$
|224>   Q  0.6645  21.47$  13.59$  13.65$
|225>   Q  -1.3290  21.6$  12.79$  13.9$
|226>   Q  0.6645  9.41$  12.03$  21.38$
|227>   Q  0.6645  9.03$  12.48$  22.84$
|228>   Q  -1.3290  9.1$  12.53$  22$
|229>   Q  0.6645  3.11$  6.04$  19.12$
|230>   Q  0.6645  2.95$  7.24$  18.17$
|231>   Q  -1.3290  3.25$  6.52$  18.43$
|232>   Q  0.6645  17.95$  16.01$  8.57$
|233>   Q  0.6645  18.9$  16.59$  9.57$
|234>   Q  -1.3290  18.64$  16.44$  8.79$
|235>   Q  0.6645  4.63$  11.98$  3.6$
|236>   Q  0.6645  3.72$  13.17$  4.04$
|237>   Q  -1.3290  4.44$  12.75$  3.9$
|238>   Q  0.6645  13.01$  7$  20.41$
|239>   Q  0.6645  11.95$  7.27$  21.53$
|240>   Q  -1.3290  12.24$  7.03$  20.77$
|241>   Q  0.6645  18.36$  8.59$  9.7$
|242>   Q  0.6645  19.09$  10$  9.46$
|243>   Q  -1.3290  19.01$  9.17$  9.68$
|244>   Q  0.6645  1.78$  15.08$  7.17$
|245>   Q  0.6645  3.27$  15.37$  7.29$
|246>   Q  -1.3290  2.48$  15.53$  7.37$
|247>   Q  0.6645  4.6$  19.38$  6.34$
|248>   Q  0.6645  5.2$  18.95$  7.78$
|249>   Q  -1.3290  5.16$  19.36$  7.03$
|250>   Q  0.6645  11.8$  4.02$  4.79$
|251>   Q  0.6645  12.87$  3.14$  4.13$
|252>   Q  -1.3290  12.25$  3.33$  4.7$
|253>   Q  0.6645  15.65$  7.99$  19.49$
|254>   Q  0.6645  14.18$  8.1$  18.68$
|255>   Q  -1.3290  14.81$  7.8$  19.25$
|256>   Q  0.6645  14.29$  3.2$  11.94$
|257>   Q  0.6645  15.73$  2.95$  12.34$
|258>   Q  -1.3290  14.93$  2.72$  12.17$
|259>   Q  0.6645  14.63$  10.17$  3.51$
|260>   Q  0.6645  15.59$  10.91$  4.5$
|261>   Q  -1.3290  15.23$  10.77$  3.75$
|262>   Q  0.6645  3.31$  12.58$  13.26$
|263>   Q  0.6645  3.62$  11.07$  12.85$
|264>   Q  -1.3290  3.8$  11.89$  13.04$
|265>   Q  0.6645  8.92$  6.91$  0.8$
|266>   Q  0.6645  8.71$  6.83$  2.41$
|267>   Q  -1.3290  8.85$  7.21$  1.62$
|268>   Q  0.6645  15.88$  10.2$  16.5$
|269>   Q  0.6645  14.7$  9.2$  16.68$
|270>   Q  -1.3290  15.43$  9.49$  16.34$
|271>   Q  0.6645  3.55$  5.86$  10.5$
|272>   Q  0.6645  4.29$  4.57$  10.79$
|273>   Q  -1.3290  4.09$  5.36$  10.93$
|274>   Q  0.6645  3.03$  12.71$  16.99$
|275>   Q  0.6645  2.32$  11.93$  18.08$
|276>   Q  -1.3290  2.42$  12.21$  17.3$
|277>   Q  0.6645  12.18$  14.77$  1.47$
|278>   Q  0.6645  12.74$  13.65$  2.33$
|279>   Q  -1.3290  12.32$  13.96$  1.66$
|280>   Q  0.6645  18.97$  12.22$  14.19$
|281>   Q  0.6645  19.07$  10.77$  13.54$
|282>   Q  -1.3290  18.78$  11.57$  13.66$
|283>   Q  0.6645  2.81$  11.57$  8.25$
|284>   Q  0.6645  2.65$  10.97$  9.81$
|285>   Q  -1.3290  2.51$  11.5$  9.1$
|286>   Q  0.6645  18.67$  16.48$  12.42$
|287>   Q  0.6645  18.92$  15.38$  11.51$
|288>   Q  -1.3290  18.76$  16.16$  11.66$
|289>   Q  0.6645  12.9$  18.88$  4.9$
|290>   Q  0.6645  12.69$  20.23$  4.3$
|291>   Q  -1.3290  13.16$  19.59$  4.53$
|292>   Q  0.6645  0.77$  6.96$  11.33$
|293>   Q  0.6645  0.69$  6.81$  12.87$
|294>   Q  -1.3290  0.57$  6.59$  12.06$
|295>   Q  0.6645  14.74$  15.59$  5.01$
|296>   Q  0.6645  13.74$  15.34$  6.16$
|297>   Q  -1.3290  14.4$  15.11$  5.63$
|298>   Q  0.6645  3.08$  16.58$  18.02$
|299>   Q  0.6645  4.63$  16.86$  18.09$
|300>   Q  -1.3290  3.91$  16.35$  18.1$
|301>   Q  0.6645  7.83$  11.29$  5.34$
|302>   Q  0.6645  7.44$  10.85$  6.6$
|303>   Q  -1.3290  7.7$  10.7$  5.85$
|304>   Q  0.6645  6.44$  7.25$  19.13$
|305>   Q  0.6645  5.46$  6.53$  18.48$
|306>   Q  -1.3290  6.18$  6.89$  18.5$
|307>   Q  0.6645  0.79$  10.27$  13.67$
|308>   Q  0.6645  -0.53$  9.71$  12.92$
|309>   Q  -1.3290  0.21$  10.18$  13.05$
|310>   Q  0.6645  9.79$  19.84$  13.63$
|311>   Q  0.6645  9.66$  21.26$  13.12$
|312>   Q  -1.3290  10.06$  20.59$  13.35$
|313>   Q  0.6645  14.11$  0.85$  11.23$
|314>   Q  0.6645  12.89$  0.03$  10.81$
|315>   Q  -1.3290  13.7$  0.18$  10.89$
|316>   Q  0.6645  16.32$  14.09$  11.13$
|317>   Q  0.6645  15.74$  14.69$  9.77$
|318>   Q  -1.3290  15.72$  14.4$  10.58$
|319>   Q  0.6645  19.59$  4.89$  6.92$
|320>   Q  0.6645  18.46$  4.5$  5.94$
|321>   Q  -1.3290  18.77$  4.87$  6.62$
|322>   Q  0.6645  4.53$  18.89$  12.34$
|323>   Q  0.6645  3.14$  18.77$  11.8$
|324>   Q  -1.3290  3.75$  19.15$  12.22$
|325>   Q  0.6645  19.22$  4.59$  10.41$
|326>   Q  0.6645  17.85$  4.19$  9.83$
|327>   Q  -1.3290  18.38$  4.68$  10.27$
|328>   Q  0.6645  3.22$  4.63$  7.17$
|329>   Q  0.6645  4.28$  3.59$  6.71$
|330>   Q  -1.3290  3.51$  3.93$  6.76$
|331>   Q  0.6645  14.77$  18.01$  15.12$
|332>   Q  0.6645  15.55$  19.34$  15.46$
|333>   Q  -1.3290  15.21$  18.57$  15.6$
|334>   Q  0.6645  16.81$  3.86$  4.24$
|335>   Q  0.6645  17.95$  3.77$  3.34$
|336>   Q  -1.3290  17.52$  3.53$  3.98$
|337>   Q  0.6645  12.02$  18.03$  13.2$
|338>   Q  0.6645  12.17$  18.04$  14.66$
|339>   Q  -1.3290  12.46$  18.01$  13.9$
|340>   Q  0.6645  8.51$  5.76$  18.43$
|341>   Q  0.6645  9.53$  4.67$  18.73$
|342>   Q  -1.3290  8.91$  5.04$  18.36$
|343>   Q  0.6645  8.64$  4.37$  3.07$
|344>   Q  0.6645  9.74$  5.23$  3.75$
|345>   Q  -1.3290  9.07$  5.07$  3.24$
|346>   Q  0.6645  9.03$  10.15$  17.05$
|347>   Q  0.6645  8.96$  11.61$  17.33$
|348>   Q  -1.3290  9.31$  10.87$  17.38$
|349>   Q  0.6645  8.55$  4.22$  14.8$
|350>   Q  0.6645  7.12$  4.64$  15.15$
|351>   Q  -1.3290  7.73$  4.09$  14.91$
|352>   Q  0.6645  7.56$  18.87$  9.72$
|353>   Q  0.6645  7.04$  20.25$  10.22$
|354>   Q  -1.3290  7.53$  19.72$  9.78$
|355>   Q  0.6645  21.12$  11.56$  9.45$
|356>   Q  0.6645  22.55$  11.67$  8.92$
|357>   Q  -1.3290  21.72$  11.7$  8.88$
|358>   Q  0.6645  11.78$  8.86$  0.62$
|359>   Q  0.6645  10.67$  8.07$  1.21$
|360>   Q  -1.3290  11.47$  8.19$  0.99$
|361>   Q  0.6645  18.31$  13.18$  16.1$
|362>   Q  0.6645  19.08$  14.43$  15.68$
|363>   Q  -1.3290  18.84$  13.65$  15.64$
|364>   Q  0.6645  11.53$  4.12$  11.86$
|365>   Q  0.6645  10.42$  3.79$  11.01$
|366>   Q  -1.3290  10.93$  4.33$  11.35$
|367>   Q  0.6645  15.94$  14.74$  13.73$
|368>   Q  0.6645  16.67$  15.99$  14.29$
|369>   Q  -1.3290  16$  15.47$  14.17$
|370>   Q  0.6645  6.67$  10.2$  8.58$
|371>   Q  0.6645  6.84$  11.86$  8.75$
|372>   Q  -1.3290  6.66$  11.09$  8.4$
|373>   Q  0.6645  14.39$  0.36$  7.53$
|374>   Q  0.6645  13.95$  0.27$  8.94$
|375>   Q  -1.3290  14$  0.63$  8.21$
|376>   Q  0.6645  11.99$  21.98$  7.4$
|377>   Q  0.6645  11.59$  20.52$  7.55$
|378>   Q  -1.3290  11.51$  21.31$  7.24$
|379>   Q  0.6645  6.76$  9.78$  16.49$
|380>   Q  0.6645  7.15$  8.49$  17.18$
|381>   Q  -1.3290  7.27$  9.12$  16.66$
|382>   Q  0.6645  10.44$  -0.08$  10.12$
|383>   Q  0.6645  10.44$  1.17$  11.03$
|384>   Q  -1.3290  10.68$  0.38$  10.81$
|385>   Q  0.6645  14.08$  20.71$  12.4$
|386>   Q  0.6645  13.76$  19.73$  13.61$
|387>   Q  -1.3290  14.12$  20.4$  13.21$
|388>   Q  0.6645  2.1$  16.48$  16.42$
|389>   Q  0.6645  0.95$  16.67$  17.26$
|390>   Q  -1.3290  1.6$  16.94$  16.86$
|391>   Q  0.6645  19.38$  15.15$  5.61$
|392>   Q  0.6645  19.58$  15.69$  7.08$
|393>   Q  -1.3290  19.8$  15.33$  6.32$
|394>   Q  0.6645  7.76$  21.44$  13.8$
|395>   Q  0.6645  7.22$  21.49$  12.47$
|396>   Q  -1.3290  7.72$  21.76$  13.06$
|397>   Q  0.6645  16.8$  7.6$  3.27$
|398>   Q  0.6645  16.12$  8.54$  2.25$
|399>   Q  -1.3290  16.25$  7.82$  2.66$
|400>   Q  0.6645  14.83$  6.74$  1.24$
|401>   Q  0.6645  13.56$  6.06$  0.6$
|402>   Q  -1.3290  14.26$  6.56$  0.6$
|403>   Q  0.6645  17.02$  11.65$  0.45$
|404>   Q  0.6645  16.37$  11.09$  1.78$
|405>   Q  -1.3290  16.82$  11.07$  1.01$
|406>   Q  0.6645  18.38$  13.57$  6.13$
|407>   Q  0.6645  19.23$  12.27$  6.15$
|408>   Q  -1.3290  18.58$  12.79$  6.38$
|409>   Q  0.6645  12.47$  9.74$  3.28$
|410>   Q  0.6645  13$  8.57$  2.44$
|411>   Q  -1.3290  12.95$  9.09$  3.1$
|412>   Q  0.6645  7.06$  13.86$  19.66$
|413>   Q  0.6645  6.79$  12.59$  20$
|414>   Q  -1.3290  7.11$  13.12$  19.46$
|415>   Q  0.6645  9.29$  18.5$  10.8$
|416>   Q  0.6645  10.03$  19.21$  11.96$
|417>   Q  -1.3290  9.94$  18.66$  11.32$
|418>   Q  0.6645  15.68$  15.22$  7.31$
|419>   Q  0.6645  16.22$  16.63$  7.92$
|420>   Q  -1.3290  16.04$  15.77$  7.91$
|421>   Q  0.6645  1.17$  6.58$  8.92$
|422>   Q  0.6645  2.77$  6.52$  8.79$
|423>   Q  -1.3290  1.96$  6.23$  8.89$
|424>   Q  0.6645  9.52$  4.88$  16.51$
|425>   Q  0.6645  10.93$  4.75$  15.88$
|426>   Q  -1.3290  10.15$  5.03$  15.93$
|427>   Q  0.6645  3.91$  3.76$  15.56$
|428>   Q  0.6645  3.81$  3.09$  14.05$
|429>   Q  -1.3290  3.88$  3.71$  14.68$
|430>   Q  0.6645  2.1$  14.56$  11.79$
|431>   Q  0.6645  0.94$  15.11$  12.58$
|432>   Q  -1.3290  1.69$  14.78$  12.47$
|433>   Q  0.6645  4.47$  14.36$  17.09$
|434>   Q  0.6645  5.58$  13.53$  17.9$
|435>   Q  -1.3290  4.99$  13.69$  17.28$
|436>   Q  0.6645  15.84$  15.3$  17.39$
|437>   Q  0.6645  15.62$  14.85$  16$
|438>   Q  -1.3290  15.62$  14.75$  16.81$
|439>   Q  0.6645  12.36$  12.1$  16.3$
|440>   Q  0.6645  13.04$  12.41$  17.73$
|441>   Q  -1.3290  12.99$  12.12$  16.9$
|442>   Q  0.6645  2.94$  8.97$  11.72$
|443>   Q  0.6645  1.74$  9.96$  11.79$
|444>   Q  -1.3290  2.47$  9.62$  11.44$
|445>   Q  0.6645  11.71$  4.91$  1.41$
|446>   Q  0.6645  13.04$  5.16$  2.28$
|447>   Q  -1.3290  12.55$  4.93$  1.59$
|448>   Q  0.6645  14.45$  18.19$  10.52$
|449>   Q  0.6645  14.68$  19.25$  9.52$
|450>   Q  -1.3290  14.28$  18.6$  9.84$
|451>   Q  0.6645  13.21$  3.37$  18.1$
|452>   Q  0.6645  14.73$  3.64$  18.39$
|453>   Q  -1.3290  13.96$  3.75$  18.01$
|454>   Q  0.6645  8.84$  4.99$  21.11$
|455>   Q  0.6645  9.08$  6.46$  20.64$
|456>   Q  -1.3290  8.81$  5.85$  21.19$
|457>   Q  0.6645  12.27$  19.05$  9.55$
|458>   Q  0.6645  10.85$  19.47$  9.87$
|459>   Q  -1.3290  11.5$  19.38$  9.38$
|460>   Q  0.6645  20.74$  7.88$  9.02$
|461>   Q  0.6645  21.4$  7.42$  7.73$
|462>   Q  -1.3290  21.27$  7.4$  8.56$
|463>   Q  0.6645  7.46$  2.71$  16.27$
|464>   Q  0.6645  6.91$  2.52$  17.7$
|465>   Q  -1.3290  7.39$  2.3$  17.02$
|466>   Q  0.6645  13.43$  14.68$  16.26$
|467>   Q  0.6645  13.41$  16.13$  16.41$
|468>   Q  -1.3290  13.1$  15.41$  16.11$
|469>   Q  0.6645  7.42$  21.82$  7.16$
|470>   Q  0.6645  6.77$  20.59$  6.4$
|471>   Q  -1.3290  7.09$  21.37$  6.49$
|472>   Q  0.6645  15.55$  13.12$  5.94$
|473>   Q  0.6645  16.67$  12.12$  6.39$
|474>   Q  -1.3290  15.89$  12.36$  6.09$
|475>   Q  0.6645  20.46$  7.44$  5.09$
|476>   Q  0.6645  21.98$  7.66$  5.34$
|477>   Q  -1.3290  21.14$  7.69$  5.53$
|478>   Q  0.6645  14.88$  4.01$  6.27$
|479>   Q  0.6645  15.2$  5.42$  6.1$
|480>   Q  -1.3290  15.21$  4.64$  5.86$
|481>   Q  0.6645  7.03$  9.41$  20.76$
|482>   Q  0.6645  5.85$  8.6$  20.36$
|483>   Q  -1.3290  6.65$  8.88$  20.29$
|484>   Q  0.6645  10.43$  13.18$  2.25$
|485>   Q  0.6645  10.13$  12.01$  3.11$
|486>   Q  -1.3290  9.93$  12.73$  2.75$
|487>   Q  0.6645  3.52$  15.44$  15.09$
|488>   Q  0.6645  2.28$  14.7$  14.7$
|489>   Q  -1.3290  2.85$  14.95$  15.25$
|490>   Q  0.6645  8.93$  13.67$  19.2$
|491>   Q  0.6645  9.69$  14.8$  19.84$
|492>   Q  -1.3290  9.51$  14.27$  19.24$
|493>   Q  0.6645  18.41$  15.07$  3.57$
|494>   Q  0.6645  17.43$  15.74$  4.45$
|495>   Q  -1.3290  17.97$  15.16$  4.27$
|496>   Q  0.6645  11.92$  11.76$  4.36$
|497>   Q  0.6645  11.19$  10.55$  5.08$
|498>   Q  -1.3290  11.55$  10.99$  4.45$
|499>   Q  0.6645  11.45$  2.97$  6.46$
|500>   Q  0.6645  10.58$  4.16$  6.97$
|501>   Q  -1.3290  11.05$  3.46$  7.02$
|502>   Q  0.6645  12.37$  8.78$  17.2$
|503>   Q  0.6645  12.76$  10.21$  17.49$
|504>   Q  -1.3290  12.85$  9.37$  17.56$
|505>   Q  0.6645  15.33$  17.02$  3.41$
|506>   Q  0.6645  15.24$  15.64$  2.64$
|507>   Q  -1.3290  14.94$  16.33$  3.09$
|508>   Q  0.6645  7.89$  13.21$  3.57$
|509>   Q  0.6645  6.52$  13.41$  4.3$
|510>   Q  -1.3290  7.35$  13.38$  4.22$
|511>   Q  0.6645  6.49$  18.99$  18.65$
|512>   Q  0.6645  6.75$  17.79$  17.6$
|513>   Q  -1.3290  6.29$  18.29$  18.16$
|514>   Q  0.6645  8.49$  15.71$  6.81$
|515>   Q  0.6645  8.4$  17.15$  7.3$
|516>   Q  -1.3290  8.12$  16.45$  6.92$
|517>   Q  0.6645  15.56$  16.16$  11.18$
|518>   Q  0.6645  15.06$  16.78$  12.49$
|519>   Q  -1.3290  15.24$  16.75$  11.69$
|520>   Q  0.6645  12.8$  15.5$  18.57$
|521>   Q  0.6645  12.71$  16.73$  19.45$
|522>   Q  -1.3290  12.89$  16.33$  18.73$
|523>   Q  0.6645  22.48$  14.27$  10.28$
|524>   Q  0.6645  20.97$  13.98$  10.52$
|525>   Q  -1.3290  21.66$  14.45$  10.41$
|526>   Q  0.6645  7.88$  18.43$  13.4$
|527>   Q  0.6645  9.1$  17.45$  13.46$
|528>   Q  -1.3290  8.62$  18.14$  13.71$
|529>   Q  0.6645  5.29$  11.69$  16.43$
|530>   Q  0.6645  4.7$  10.78$  15.32$
|531>   Q  -1.3290  5.19$  10.96$  15.97$
|532>   Q  0.6645  8.11$  9.12$  1.11$
|533>   Q  0.6645  6.75$  9.86$  1.01$
|534>   Q  -1.3290  7.6$  9.77$  0.94$
|535>   Q  0.6645  16.07$  3.25$  8.81$
|536>   Q  0.6645  17.04$  4.05$  7.89$
|537>   Q  -1.3290  16.81$  3.53$  8.55$
|538>   Q  0.6645  20.56$  10.04$  5.98$
|539>   Q  0.6645  21.04$  11.09$  6.89$
|540>   Q  -1.3290  20.81$  10.81$  6.17$
|541>   Q  0.6645  9.64$  8.61$  19.73$
|542>   Q  0.6645  10.74$  7.54$  19.8$
|543>   Q  -1.3290  9.99$  7.89$  19.54$
|544>   Q  0.6645  6.98$  2.01$  12.84$
|545>   Q  0.6645  6.18$  3.31$  13.01$
|546>   Q  -1.3290  6.49$  2.67$  12.61$
|547>   Q  0.6645  4.26$  10.16$  2.4$
|548>   Q  0.6645  5.6$  10.24$  3.17$
|549>   Q  -1.3290  5.01$  10.49$  2.62$
|550>   Q  0.6645  8.45$  21.22$  8.76$
|551>   Q  0.6645  9.72$  21.68$  8.08$
|552>   Q  -1.3290  8.98$  21.8$  8.47$
|553>   Q  0.6645  11.98$  1.78$  13.24$
|554>   Q  0.6645  12.47$  3$  13.83$
|555>   Q  -1.3290  12.09$  2.58$  13.22$
|556>   Q  0.6645  11.56$  14.46$  7.43$
|557>   Q  0.6645  12.63$  15.17$  8.22$
|558>   Q  -1.3290  12.28$  14.93$  7.54$
|559>   Q  0.6645  7.7$  17.62$  15.32$
|560>   Q  0.6645  8.38$  16.38$  15.87$
|561>   Q  -1.3290  7.78$  16.99$  15.87$
|562>   Q  0.6645  4.32$  10.31$  17.64$
|563>   Q  0.6645  4.91$  9.1$  18.08$
|564>   Q  -1.3290  4.43$  9.75$  18.22$
|565>   Q  0.6645  6.07$  1.69$  6.54$
|566>   Q  0.6645  5.79$  2.13$  7.92$
|567>   Q  -1.3290  5.94$  2.27$  7.12$
|568>   Q  0.6645  13.6$  2.59$  8.07$
|569>   Q  0.6645  13.15$  3.96$  7.49$
|570>   Q  -1.3290  13.73$  3.4$  7.85$
|571>   Q  0.6645  18.22$  6.19$  14.03$
|572>   Q  0.6645  19.57$  5.89$  14.49$
|573>   Q  -1.3290  18.95$  6.4$  14.35$
|574>   Q  0.6645  5.3$  17.78$  5.19$
|575>   Q  0.6645  6.7$  17.19$  5.22$
|576>   Q  -1.3290  5.89$  17.2$  5.07$
|577>   Q  0.6645  16.91$  11.7$  17.71$
|578>   Q  0.6645  16.12$  12.7$  16.75$
|579>   Q  -1.3290  16.66$  12.01$  16.97$
|580>   Q  0.6645  13.3$  16.77$  9.37$
|581>   Q  0.6645  13.18$  15.72$  10.47$
|582>   Q  -1.3290  12.92$  16.12$  9.78$
|583>   Q  0.6645  4.92$  16.54$  8.48$
|584>   Q  0.6645  4.23$  17.33$  9.59$
|585>   Q  -1.3290  4.75$  17.23$  8.94$
|586>   Q  0.6645  2.43$  13.43$  9.74$
|587>   Q  0.6645  2.44$  14.97$  9.24$
|588>   Q  -1.3290  2.37$  14.31$  9.8$
|589>   Q  0.6645  4.99$  6.36$  8.23$
|590>   Q  0.6645  4.12$  7.57$  7.65$
|591>   Q  -1.3290  4.43$  7.03$  8.25$
|592>   Q  0.6645  4.3$  2.42$  9.63$
|593>   Q  0.6645  5.39$  2.55$  10.78$
|594>   Q  -1.3290  4.97$  2.74$  10.06$
|595>   Q  0.6645  10.68$  17.61$  8.78$
|596>   Q  0.6645  10.06$  16.32$  8.75$
|597>   Q  -1.3290  10.14$  17.08$  8.5$
|598>   Q  0.6645  6.38$  17.53$  11.64$
|599>   Q  0.6645  5.87$  16.89$  13.05$
|600>   Q  -1.3290  6.05$  17.52$  12.43$
|601>   Q  0.6645  6.66$  4.5$  18.76$
|602>   Q  0.6645  6.02$  3.87$  20.11$
|603>   Q  -1.3290  6.11$  4.06$  19.29$
|604>   Q  0.6645  13.03$  13.47$  19.74$
|605>   Q  0.6645  11.51$  13.54$  19.35$
|606>   Q  -1.3290  12.36$  13.64$  19.24$
|607>   Q  0.6645  2.64$  18.71$  9.38$
|608>   Q  0.6645  1.63$  18.24$  10.35$
|609>   Q  -1.3290  2.37$  18.27$  10.02$
|610>   Q  0.6645  5.03$  5.27$  14.67$
|611>   Q  0.6645  5.82$  6.53$  14.55$
|612>   Q  -1.3290  5.59$  5.83$  14.92$
|613>   Q  0.6645  14.31$  5.17$  4.32$
|614>   Q  0.6645  14.75$  6.38$  3.41$
|615>   Q  -1.3290  14.29$  5.69$  3.63$
|616>   Q  0.6645  7.99$  5.98$  4.79$
|617>   Q  0.6645  7.42$  5.9$  6.23$
|618>   Q  -1.3290  7.98$  6.07$  5.62$
|619>   Q  0.6645  10.86$  15.42$  16.38$
|620>   Q  0.6645  9.81$  15.11$  17.43$
|621>   Q  -1.3290  10.07$  15.26$  16.65$
|622>   Q  0.6645  3.96$  7.42$  15.79$
|623>   Q  0.6645  3.73$  7.76$  14.43$
|624>   Q  -1.3290  3.61$  7.84$  15.24$
|625>   Q  0.6645  14.72$  17.07$  18.37$
|626>   Q  0.6645  15.58$  17.93$  17.39$
|627>   Q  -1.3290  15.4$  17.5$  18.12$
|628>   Q  0.6645  4.23$  6.75$  12.11$
|629>   Q  0.6645  4.6$  8.21$  12.29$
|630>   Q  -1.3290  4.23$  7.49$  12.51$
|631>   Q  0.6645  15.37$  14.05$  19.35$
|632>   Q  0.6645  15.69$  12.92$  20.25$
|633>   Q  -1.3290  15.28$  13.61$  20.04$
|634>   Q  0.6645  14.09$  12.31$  3.92$
|635>   Q  0.6645  13.37$  13.48$  4.68$
|636>   Q  -1.3290  13.49$  12.89$  4.06$
|637> *
|638> 
|639>                          ****END OF INPUT****
================================================================================

                     *******************************
                     * Energy+Gradient Calculation *
                     *******************************

---------------------------------
CARTESIAN COORDINATES (ANGSTROEM)
---------------------------------
  C      9.520000   11.850000   11.890000
  H     10.260000   12.220000   12.600000
  H      8.490000   12.010000   12.240000
  C      9.690000   10.330000   11.810000
  H      9.250000   10.010000   12.800000
  H      9.000000    9.880000   11.020000
  C     11.090000    9.700000   11.510000
  H     11.050000    8.590000   11.590000
  H     11.790000   10.070000   12.260000
  C     11.710000   10.010000   10.100000
  H     11.660000   11.090000   10.120000
  H     11.080000    9.750000    9.210000
  O     13.090000    9.470000    9.900000
  H     13.490000    9.910000    9.180000
  O      9.610000   12.460000   10.640000
  H      9.470000   13.390000   10.810000
  O     12.970000   11.800000   13.150000
  H     13.150000   11.920000   12.230000
  H     13.400000   10.970000   13.510000
  O      6.930000   13.730000   13.590000
  H      7.240000   13.280000   14.340000
  H      6.660000   13.030000   12.990000
  O      8.860000    7.100000    9.790000
  H      8.730000    6.140000    9.910000
  H      9.850000    7.290000    9.750000
  O     12.860000    7.170000   14.160000
  H     11.970000    7.460000   13.820000
  H     13.350000    8.000000   14.200000
  O     15.070000    8.670000   11.240000
  H     15.620000    8.020000   10.860000
  H     14.310000    8.770000   10.680000
  O     10.570000    9.860000    6.640000
  H     10.460000   10.640000    7.210000
  H      9.670000    9.870000    6.490000
  O     14.200000    5.810000    9.650000
  H     14.500000    5.740000   10.570000
  H     13.750000    4.950000    9.480000
  O      7.810000    4.490000   10.030000
  H      8.410000    3.740000   10.060000
  H      7.010000    4.140000   10.410000
  O      7.440000    8.000000   14.010000
  H      7.660000    8.210000   14.910000
  H      8.240000    7.590000   13.590000
  O     10.440000    6.290000    6.930000
  H      9.530000    6.160000    6.660000
  H     10.470000    6.390000    7.890000
  O      5.840000   12.380000   11.180000
  H      6.040000   11.490000   11.050000
  H      5.000000   12.400000   11.670000
  O      8.660000   12.900000   15.730000
  H      9.310000   12.180000   15.490000
  H      9.220000   13.640000   16.010000
  O      5.780000   15.870000   14.450000
  H      6.210000   15.000000   14.320000
  H      6.280000   16.220000   15.190000
  O      5.920000    9.370000   12.150000
  H      6.280000    8.850000   12.890000
  H      6.520000    9.050000   11.500000
  O     14.440000    5.650000   12.440000
  H     15.420000    5.460000   12.690000
  H     14.180000    6.330000   13.080000
  O     14.340000    9.570000   13.660000
  H     14.740000    9.080000   12.910000
  H     14.950000    9.680000   14.410000
  O      9.070000   15.380000   13.190000
  H      8.360000   14.780000   13.580000
  H      9.940000   15.070000   13.500000
  O      6.470000    8.250000    9.760000
  H      7.250000    7.740000    9.580000
  H      5.700000    7.790000    9.500000
  O     11.950000   14.870000   13.120000
  H     12.100000   13.940000   12.970000
  H     12.520000   14.950000   13.910000
  O     15.900000   12.880000   13.190000
  H     15.190000   12.240000   13.060000
  H     16.740000   12.380000   13.330000
  O     10.430000   12.370000    7.900000
  H      9.880000   13.080000    7.570000
  H     10.340000   12.460000    8.880000
  O     11.050000   11.070000   15.130000
  H     11.650000   10.980000   14.370000
  H     10.810000   10.200000   15.530000
  O     13.750000   12.290000    8.160000
  H     14.430000   12.280000    7.470000
  H     12.910000   12.710000    7.790000
  O     11.430000    6.700000    9.630000
  H     12.360000    6.880000    9.430000
  H     11.390000    6.020000   10.280000
  O     13.580000   12.750000   10.900000
  H     14.340000   13.390000   10.820000
  H     13.460000   12.540000    9.950000
  O      7.300000   13.580000    9.250000
  H      6.670000   13.510000    9.990000
  H      8.210000   13.410000    9.590000
  O     16.100000   11.270000    9.990000
  H     15.270000   11.750000   10.280000
  H     15.770000   10.370000   10.130000
  O      6.420000    5.340000    7.730000
  H      6.350000    4.470000    7.330000
  H      7.030000    5.350000    8.500000
  O     12.820000    4.470000   15.360000
  H     13.140000    5.170000   14.740000
  H     13.470000    4.480000   16.070000
  O     10.060000    6.760000   13.550000
  H      9.900000    6.180000   14.310000
  H     10.220000    6.090000   12.790000
  O     17.030000    7.430000    9.630000
  H     17.550000    6.630000    9.720000
  H     16.620000    7.370000    8.740000
  O      9.680000   15.090000   10.410000
  H      9.390000   15.320000   11.270000
  H     10.580000   15.390000   10.370000
  Q     12.390000    6.090000    4.020000
  Q     11.600000    6.300000    5.160000
  Q     11.710000    5.950000    4.460000
  Q      1.990000   10.980000   16.060000
  Q      2.340000    9.540000   15.510000
  Q      1.890000   10.240000   15.590000
  Q     19.520000    9.140000   11.800000
  Q     19.690000    8.250000   12.970000
  Q     19.720000    8.960000   12.580000
  Q     11.910000   17.560000   17.490000
  Q     10.460000   17.660000   16.910000
  Q     11.310000   17.880000   17.010000
  Q      6.910000    8.960000    4.800000
  Q      5.410000    9.100000    5.150000
  Q      6.070000    8.960000    4.650000
  Q      9.250000    1.800000    9.140000
  Q     10.390000    2.890000    8.780000
  Q      9.770000    2.510000    9.240000
  Q     10.280000   14.600000    5.580000
  Q      8.820000   14.070000    5.540000
  Q      9.540000   14.370000    5.910000
  Q     12.220000    8.400000    6.410000
  Q     13.030000    8.450000    5.030000
  Q     12.850000    8.200000    5.860000
  Q      3.260000    8.920000    5.600000
  Q      3.860000    9.940000    6.640000
  Q      3.800000    9.200000    6.190000
  Q      4.680000    7.240000    2.200000
  Q      5.270000    7.630000    3.670000
  Q      4.890000    7.120000    3.050000
  Q     18.680000   12.330000    8.160000
  Q     17.730000   11.790000    9.220000
  Q     18.510000   12.010000    8.920000
  Q      8.190000   16.640000    9.800000
  Q      6.660000   16.770000    9.810000
  Q      7.440000   17.000000    9.980000
  Q     10.840000   10.620000   20.860000
  Q     10.170000   10.630000   19.500000
  Q     10.210000   10.470000   20.330000
  Q      4.890000   20.730000   11.440000
  Q      5.510000   21.680000   10.370000
  Q      5.490000   21.280000   11.120000
  Q     10.270000   18.630000    5.180000
  Q     10.730000   17.510000    6.110000
  Q     10.800000   17.980000    5.430000
  Q     17.570000    4.440000   12.270000
  Q     17.190000    3.960000   13.720000
  Q     17.080000    4.340000   12.950000
  Q     18.140000    6.940000   16.300000
  Q     16.870000    7.810000   16.620000
  Q     17.570000    7.340000   16.790000
  Q     10.230000    7.880000   17.380000
  Q     10.720000    7.250000   16.120000
  Q     10.490000    7.880000   16.580000
  Q     18.500000   10.430000   16.070000
  Q     18.420000    9.140000   16.790000
  Q     18.830000    9.840000   16.520000
  Q     14.400000    7.270000    7.110000
  Q     15.000000    6.270000    8.100000
  Q     15.000000    6.740000    7.370000
  Q     14.500000    1.490000   16.170000
  Q     14.630000    1.940000   14.620000
  Q     14.920000    1.620000   15.400000
  Q      4.880000   11.630000    7.180000
  Q      4.090000   12.080000    5.990000
  Q      4.200000   11.710000    6.710000
  Q      5.860000   15.880000    6.910000
  Q      6.090000   14.670000    7.700000
  Q      5.600000   15.250000    7.380000
  Q     18.150000    6.880000    6.660000
  Q     16.650000    7.440000    6.540000
  Q     17.510000    7.470000    6.520000
  Q     12.770000   16.600000    3.250000
  Q     11.290000   16.750000    3.770000
  Q     11.910000   16.450000    3.270000
  Q     18.260000    8.050000    4.850000
  Q     19.050000    8.520000    3.510000
  Q     18.670000    7.960000    4.070000
  Q     11.780000   -0.470000   13.940000
  Q     13.190000   -0.170000   14.050000
  Q     12.410000    0.020000   14.170000
  Q     18.940000   13.100000   10.390000
  Q     19.050000   13.000000   11.940000
  Q     19.030000   13.390000   11.170000
  Q     21.980000   12.070000   13.530000
  Q     21.470000   13.590000   13.650000
  Q     21.600000   12.790000   13.900000
  Q      9.410000   12.030000   21.380000
  Q      9.030000   12.480000   22.840000
  Q      9.100000   12.530000   22.000000
  Q      3.110000    6.040000   19.120000
  Q      2.950000    7.240000   18.170000
  Q      3.250000    6.520000   18.430000
  Q     17.950000   16.010000    8.570000
  Q     18.900000   16.590000    9.570000
  Q     18.640000   16.440000    8.790000
  Q      4.630000   11.980000    3.600000
  Q      3.720000   13.170000    4.040000
  Q      4.440000   12.750000    3.900000
  Q     13.010000    7.000000   20.410000
  Q     11.950000    7.270000   21.530000
  Q     12.240000    7.030000   20.770000
  Q     18.360000    8.590000    9.700000
  Q     19.090000   10.000000    9.460000
  Q     19.010000    9.170000    9.680000
  Q      1.780000   15.080000    7.170000
  Q      3.270000   15.370000    7.290000
  Q      2.480000   15.530000    7.370000
  Q      4.600000   19.380000    6.340000
  Q      5.200000   18.950000    7.780000
  Q      5.160000   19.360000    7.030000
  Q     11.800000    4.020000    4.790000
  Q     12.870000    3.140000    4.130000
  Q     12.250000    3.330000    4.700000
  Q     15.650000    7.990000   19.490000
  Q     14.180000    8.100000   18.680000
  Q     14.810000    7.800000   19.250000
  Q     14.290000    3.200000   11.940000
  Q     15.730000    2.950000   12.340000
  Q     14.930000    2.720000   12.170000
  Q     14.630000   10.170000    3.510000
  Q     15.590000   10.910000    4.500000
  Q     15.230000   10.770000    3.750000
  Q      3.310000   12.580000   13.260000
  Q      3.620000   11.070000   12.850000
  Q      3.800000   11.890000   13.040000
  Q      8.920000    6.910000    0.800000
  Q      8.710000    6.830000    2.410000
  Q      8.850000    7.210000    1.620000
  Q     15.880000   10.200000   16.500000
  Q     14.700000    9.200000   16.680000
  Q     15.430000    9.490000   16.340000
  Q      3.550000    5.860000   10.500000
  Q      4.290000    4.570000   10.790000
  Q      4.090000    5.360000   10.930000
  Q      3.030000   12.710000   16.990000
  Q      2.320000   11.930000   18.080000
  Q      2.420000   12.210000   17.300000
  Q     12.180000   14.770000    1.470000
  Q     12.740000   13.650000    2.330000
  Q     12.320000   13.960000    1.660000
  Q     18.970000   12.220000   14.190000
  Q     19.070000   10.770000   13.540000
  Q     18.780000   11.570000   13.660000
  Q      2.810000   11.570000    8.250000
  Q      2.650000   10.970000    9.810000
  Q      2.510000   11.500000    9.100000
  Q     18.670000   16.480000   12.420000
  Q     18.920000   15.380000   11.510000
  Q     18.760000   16.160000   11.660000
  Q     12.900000   18.880000    4.900000
  Q     12.690000   20.230000    4.300000
  Q     13.160000   19.590000    4.530000
  Q      0.770000    6.960000   11.330000
  Q      0.690000    6.810000   12.870000
  Q      0.570000    6.590000   12.060000
  Q     14.740000   15.590000    5.010000
  Q     13.740000   15.340000    6.160000
  Q     14.400000   15.110000    5.630000
  Q      3.080000   16.580000   18.020000
  Q      4.630000   16.860000   18.090000
  Q      3.910000   16.350000   18.100000
  Q      7.830000   11.290000    5.340000
  Q      7.440000   10.850000    6.600000
  Q      7.700000   10.700000    5.850000
  Q      6.440000    7.250000   19.130000
  Q      5.460000    6.530000   18.480000
  Q      6.180000    6.890000   18.500000
  Q      0.790000   10.270000   13.670000
  Q     -0.530000    9.710000   12.920000
  Q      0.210000   10.180000   13.050000
  Q      9.790000   19.840000   13.630000
  Q      9.660000   21.260000   13.120000
  Q     10.060000   20.590000   13.350000
  Q     14.110000    0.850000   11.230000
  Q     12.890000    0.030000   10.810000
  Q     13.700000    0.180000   10.890000
  Q     16.320000   14.090000   11.130000
  Q     15.740000   14.690000    9.770000
  Q     15.720000   14.400000   10.580000
  Q     19.590000    4.890000    6.920000
  Q     18.460000    4.500000    5.940000
  Q     18.770000    4.870000    6.620000
  Q      4.530000   18.890000   12.340000
  Q      3.140000   18.770000   11.800000
  Q      3.750000   19.150000   12.220000
  Q     19.220000    4.590000   10.410000
  Q     17.850000    4.190000    9.830000
  Q     18.380000    4.680000   10.270000
  Q      3.220000    4.630000    7.170000
  Q      4.280000    3.590000    6.710000
  Q      3.510000    3.930000    6.760000
  Q     14.770000   18.010000   15.120000
  Q     15.550000   19.340000   15.460000
  Q     15.210000   18.570000   15.600000
  Q     16.810000    3.860000    4.240000
  Q     17.950000    3.770000    3.340000
  Q     17.520000    3.530000    3.980000
  Q     12.020000   18.030000   13.200000
  Q     12.170000   18.040000   14.660000
  Q     12.460000   18.010000   13.900000
  Q      8.510000    5.760000   18.430000
  Q      9.530000    4.670000   18.730000
  Q      8.910000    5.040000   18.360000
  Q      8.640000    4.370000    3.070000
  Q      9.740000    5.230000    3.750000
  Q      9.070000    5.070000    3.240000
  Q      9.030000   10.150000   17.050000
  Q      8.960000   11.610000   17.330000
  Q      9.310000   10.870000   17.380000
  Q      8.550000    4.220000   14.800000
  Q      7.120000    4.640000   15.150000
  Q      7.730000    4.090000   14.910000
  Q      7.560000   18.870000    9.720000
  Q      7.040000   20.250000   10.220000
  Q      7.530000   19.720000    9.780000
  Q     21.120000   11.560000    9.450000
  Q     22.550000   11.670000    8.920000
  Q     21.720000   11.700000    8.880000
  Q     11.780000    8.860000    0.620000
  Q     10.670000    8.070000    1.210000
  Q     11.470000    8.190000    0.990000
  Q     18.310000   13.180000   16.100000
  Q     19.080000   14.430000   15.680000
  Q     18.840000   13.650000   15.640000
  Q     11.530000    4.120000   11.860000
  Q     10.420000    3.790000   11.010000
  Q     10.930000    4.330000   11.350000
  Q     15.940000   14.740000   13.730000
  Q     16.670000   15.990000   14.290000
  Q     16.000000   15.470000   14.170000
  Q      6.670000   10.200000    8.580000
  Q      6.840000   11.860000    8.750000
  Q      6.660000   11.090000    8.400000
  Q     14.390000    0.360000    7.530000
  Q     13.950000    0.270000    8.940000
  Q     14.000000    0.630000    8.210000
  Q     11.990000   21.980000    7.400000
  Q     11.590000   20.520000    7.550000
  Q     11.510000   21.310000    7.240000
  Q      6.760000    9.780000   16.490000
  Q      7.150000    8.490000   17.180000
  Q      7.270000    9.120000   16.660000
  Q     10.440000   -0.080000   10.120000
  Q     10.440000    1.170000   11.030000
  Q     10.680000    0.380000   10.810000
  Q     14.080000   20.710000   12.400000
  Q     13.760000   19.730000   13.610000
  Q     14.120000   20.400000   13.210000
  Q      2.100000   16.480000   16.420000
  Q      0.950000   16.670000   17.260000
  Q      1.600000   16.940000   16.860000
  Q     19.380000   15.150000    5.610000
  Q     19.580000   15.690000    7.080000
  Q     19.800000   15.330000    6.320000
  Q      7.760000   21.440000   13.800000
  Q      7.220000   21.490000   12.470000
  Q      7.720000   21.760000   13.060000
  Q     16.800000    7.600000    3.270000
  Q     16.120000    8.540000    2.250000
  Q     16.250000    7.820000    2.660000
  Q     14.830000    6.740000    1.240000
  Q     13.560000    6.060000    0.600000
  Q     14.260000    6.560000    0.600000
  Q     17.020000   11.650000    0.450000
  Q     16.370000   11.090000    1.780000
  Q     16.820000   11.070000    1.010000
  Q     18.380000   13.570000    6.130000
  Q     19.230000   12.270000    6.150000
  Q     18.580000   12.790000    6.380000
  Q     12.470000    9.740000    3.280000
  Q     13.000000    8.570000    2.440000
  Q     12.950000    9.090000    3.100000
  Q      7.060000   13.860000   19.660000
  Q      6.790000   12.590000   20.000000
  Q      7.110000   13.120000   19.460000
  Q      9.290000   18.500000   10.800000
  Q     10.030000   19.210000   11.960000
  Q      9.940000   18.660000   11.320000
  Q     15.680000   15.220000    7.310000
  Q     16.220000   16.630000    7.920000
  Q     16.040000   15.770000    7.910000
  Q      1.170000    6.580000    8.920000
  Q      2.770000    6.520000    8.790000
  Q      1.960000    6.230000    8.890000
  Q      9.520000    4.880000   16.510000
  Q     10.930000    4.750000   15.880000
  Q     10.150000    5.030000   15.930000
  Q      3.910000    3.760000   15.560000
  Q      3.810000    3.090000   14.050000
  Q      3.880000    3.710000   14.680000
  Q      2.100000   14.560000   11.790000
  Q      0.940000   15.110000   12.580000
  Q      1.690000   14.780000   12.470000
  Q      4.470000   14.360000   17.090000
  Q      5.580000   13.530000   17.900000
  Q      4.990000   13.690000   17.280000
  Q     15.840000   15.300000   17.390000
  Q     15.620000   14.850000   16.000000
  Q     15.620000   14.750000   16.810000
  Q     12.360000   12.100000   16.300000
  Q     13.040000   12.410000   17.730000
  Q     12.990000   12.120000   16.900000
  Q      2.940000    8.970000   11.720000
  Q      1.740000    9.960000   11.790000
  Q      2.470000    9.620000   11.440000
  Q     11.710000    4.910000    1.410000
  Q     13.040000    5.160000    2.280000
  Q     12.550000    4.930000    1.590000
  Q     14.450000   18.190000   10.520000
  Q     14.680000   19.250000    9.520000
  Q     14.280000   18.600000    9.840000
  Q     13.210000    3.370000   18.100000
  Q     14.730000    3.640000   18.390000
  Q     13.960000    3.750000   18.010000
  Q      8.840000    4.990000   21.110000
  Q      9.080000    6.460000   20.640000
  Q      8.810000    5.850000   21.190000
  Q     12.270000   19.050000    9.550000
  Q     10.850000   19.470000    9.870000
  Q     11.500000   19.380000    9.380000
  Q     20.740000    7.880000    9.020000
  Q     21.400000    7.420000    7.730000
  Q     21.270000    7.400000    8.560000
  Q      7.460000    2.710000   16.270000
  Q      6.910000    2.520000   17.700000
  Q      7.390000    2.300000   17.020000
  Q     13.430000   14.680000   16.260000
  Q     13.410000   16.130000   16.410000
  Q     13.100000   15.410000   16.110000
  Q      7.420000   21.820000    7.160000
  Q      6.770000   20.590000    6.400000
  Q      7.090000   21.370000    6.490000
  Q     15.550000   13.120000    5.940000
  Q     16.670000   12.120000    6.390000
  Q     15.890000   12.360000    6.090000
  Q     20.460000    7.440000    5.090000
  Q     21.980000    7.660000    5.340000
  Q     21.140000    7.690000    5.530000
  Q     14.880000    4.010000    6.270000
  Q     15.200000    5.420000    6.100000
  Q     15.210000    4.640000    5.860000
  Q      7.030000    9.410000   20.760000
  Q      5.850000    8.600000   20.360000
  Q      6.650000    8.880000   20.290000
  Q     10.430000   13.180000    2.250000
  Q     10.130000   12.010000    3.110000
  Q      9.930000   12.730000    2.750000
  Q      3.520000   15.440000   15.090000
  Q      2.280000   14.700000   14.700000
  Q      2.850000   14.950000   15.250000
  Q      8.930000   13.670000   19.200000
  Q      9.690000   14.800000   19.840000
  Q      9.510000   14.270000   19.240000
  Q     18.410000   15.070000    3.570000
  Q     17.430000   15.740000    4.450000
  Q     17.970000   15.160000    4.270000
  Q     11.920000   11.760000    4.360000
  Q     11.190000   10.550000    5.080000
  Q     11.550000   10.990000    4.450000
  Q     11.450000    2.970000    6.460000
  Q     10.580000    4.160000    6.970000
  Q     11.050000    3.460000    7.020000
  Q     12.370000    8.780000   17.200000
  Q     12.760000   10.210000   17.490000
  Q     12.850000    9.370000   17.560000
  Q     15.330000   17.020000    3.410000
  Q     15.240000   15.640000    2.640000
  Q     14.940000   16.330000    3.090000
  Q      7.890000   13.210000    3.570000
  Q      6.520000   13.410000    4.300000
  Q      7.350000   13.380000    4.220000
  Q      6.490000   18.990000   18.650000
  Q      6.750000   17.790000   17.600000
  Q      6.290000   18.290000   18.160000
  Q      8.490000   15.710000    6.810000
  Q      8.400000   17.150000    7.300000
  Q      8.120000   16.450000    6.920000
  Q     15.560000   16.160000   11.180000
  Q     15.060000   16.780000   12.490000
  Q     15.240000   16.750000   11.690000
  Q     12.800000   15.500000   18.570000
  Q     12.710000   16.730000   19.450000
  Q     12.890000   16.330000   18.730000
  Q     22.480000   14.270000   10.280000
  Q     20.970000   13.980000   10.520000
  Q     21.660000   14.450000   10.410000
  Q      7.880000   18.430000   13.400000
  Q      9.100000   17.450000   13.460000
  Q      8.620000   18.140000   13.710000
  Q      5.290000   11.690000   16.430000
  Q      4.700000   10.780000   15.320000
  Q      5.190000   10.960000   15.970000
  Q      8.110000    9.120000    1.110000
  Q      6.750000    9.860000    1.010000
  Q      7.600000    9.770000    0.940000
  Q     16.070000    3.250000    8.810000
  Q     17.040000    4.050000    7.890000
  Q     16.810000    3.530000    8.550000
  Q     20.560000   10.040000    5.980000
  Q     21.040000   11.090000    6.890000
  Q     20.810000   10.810000    6.170000
  Q      9.640000    8.610000   19.730000
  Q     10.740000    7.540000   19.800000
  Q      9.990000    7.890000   19.540000
  Q      6.980000    2.010000   12.840000
  Q      6.180000    3.310000   13.010000
  Q      6.490000    2.670000   12.610000
  Q      4.260000   10.160000    2.400000
  Q      5.600000   10.240000    3.170000
  Q      5.010000   10.490000    2.620000
  Q      8.450000   21.220000    8.760000
  Q      9.720000   21.680000    8.080000
  Q      8.980000   21.800000    8.470000
  Q     11.980000    1.780000   13.240000
  Q     12.470000    3.000000   13.830000
  Q     12.090000    2.580000   13.220000
  Q     11.560000   14.460000    7.430000
  Q     12.630000   15.170000    8.220000
  Q     12.280000   14.930000    7.540000
  Q      7.700000   17.620000   15.320000
  Q      8.380000   16.380000   15.870000
  Q      7.780000   16.990000   15.870000
  Q      4.320000   10.310000   17.640000
  Q      4.910000    9.100000   18.080000
  Q      4.430000    9.750000   18.220000
  Q      6.070000    1.690000    6.540000
  Q      5.790000    2.130000    7.920000
  Q      5.940000    2.270000    7.120000
  Q     13.600000    2.590000    8.070000
  Q     13.150000    3.960000    7.490000
  Q     13.730000    3.400000    7.850000
  Q     18.220000    6.190000   14.030000
  Q     19.570000    5.890000   14.490000
  Q     18.950000    6.400000   14.350000
  Q      5.300000   17.780000    5.190000
  Q      6.700000   17.190000    5.220000
  Q      5.890000   17.200000    5.070000
  Q     16.910000   11.700000   17.710000
  Q     16.120000   12.700000   16.750000
  Q     16.660000   12.010000   16.970000
  Q     13.300000   16.770000    9.370000
  Q     13.180000   15.720000   10.470000
  Q     12.920000   16.120000    9.780000
  Q      4.920000   16.540000    8.480000
  Q      4.230000   17.330000    9.590000
  Q      4.750000   17.230000    8.940000
  Q      2.430000   13.430000    9.740000
  Q      2.440000   14.970000    9.240000
  Q      2.370000   14.310000    9.800000
  Q      4.990000    6.360000    8.230000
  Q      4.120000    7.570000    7.650000
  Q      4.430000    7.030000    8.250000
  Q      4.300000    2.420000    9.630000
  Q      5.390000    2.550000   10.780000
  Q      4.970000    2.740000   10.060000
  Q     10.680000   17.610000    8.780000
  Q     10.060000   16.320000    8.750000
  Q     10.140000   17.080000    8.500000
  Q      6.380000   17.530000   11.640000
  Q      5.870000   16.890000   13.050000
  Q      6.050000   17.520000   12.430000
  Q      6.660000    4.500000   18.760000
  Q      6.020000    3.870000   20.110000
  Q      6.110000    4.060000   19.290000
  Q     13.030000   13.470000   19.740000
  Q     11.510000   13.540000   19.350000
  Q     12.360000   13.640000   19.240000
  Q      2.640000   18.710000    9.380000
  Q      1.630000   18.240000   10.350000
  Q      2.370000   18.270000   10.020000
  Q      5.030000    5.270000   14.670000
  Q      5.820000    6.530000   14.550000
  Q      5.590000    5.830000   14.920000
  Q     14.310000    5.170000    4.320000
  Q     14.750000    6.380000    3.410000
  Q     14.290000    5.690000    3.630000
  Q      7.990000    5.980000    4.790000
  Q      7.420000    5.900000    6.230000
  Q      7.980000    6.070000    5.620000
  Q     10.860000   15.420000   16.380000
  Q      9.810000   15.110000   17.430000
  Q     10.070000   15.260000   16.650000
  Q      3.960000    7.420000   15.790000
  Q      3.730000    7.760000   14.430000
  Q      3.610000    7.840000   15.240000
  Q     14.720000   17.070000   18.370000
  Q     15.580000   17.930000   17.390000
  Q     15.400000   17.500000   18.120000
  Q      4.230000    6.750000   12.110000
  Q      4.600000    8.210000   12.290000
  Q      4.230000    7.490000   12.510000
  Q     15.370000   14.050000   19.350000
  Q     15.690000   12.920000   20.250000
  Q     15.280000   13.610000   20.040000
  Q     14.090000   12.310000    3.920000
  Q     13.370000   13.480000    4.680000
  Q     13.490000   12.890000    4.060000

----------------------------
CARTESIAN COORDINATES (A.U.)
----------------------------
  NO LB      ZA    FRAG     MASS         X           Y           Z
   0 C     6.0000    0    12.011   17.990193   22.393255   22.468844
   1 H     1.0000    0     1.008   19.388590   23.092453   23.810549
   2 H     1.0000    0     1.008   16.043775   22.695611   23.130248
   3 C     6.0000    0    12.011   18.311446   19.520871   22.317666
   4 H     1.0000    0     1.008   17.479967   18.916159   24.188495
   5 H     1.0000    0     1.008   17.007535   18.670494   20.824782
   6 C     6.0000    0    12.011   20.957063   18.330343   21.750748
   7 H     1.0000    0     1.008   20.881474   16.232747   21.901926
   8 H     1.0000    0     1.008   22.279871   19.029542   23.168042
   9 C     6.0000    0    12.011   22.128693   18.916159   19.086234
  10 H     1.0000    0     1.008   22.034207   20.957063   19.124028
  11 H     1.0000    0     1.008   20.938166   18.424830   17.404378
  12 O     8.0000    0    15.999   24.736515   17.895706   18.708289
  13 H     1.0000    0     1.008   25.492406   18.727186   17.347686
  14 O     8.0000    0    15.999   18.160268   23.545988   20.106686
  15 H     1.0000    0     1.008   17.895706   25.303433   20.427940
  16 O     8.0000    0    15.999   24.509748   22.298768   24.849899
  17 H     1.0000    0     1.008   24.849899   22.525536   23.111351
  18 H     1.0000    0     1.008   25.322330   20.730296   25.530200
  19 O     8.0000    0    15.999   13.095802   25.945940   25.681378
  20 H     1.0000    0     1.008   13.681617   25.095563   27.098673
  21 H     1.0000    0     1.008   12.585576   24.623132   24.547542
  22 O     8.0000    0    15.999   16.742974   13.417056   18.500419
  23 H     1.0000    0     1.008   16.497309   11.602918   18.727186
  24 H     1.0000    0     1.008   18.613802   13.776104   18.424830
  25 O     8.0000    0    15.999   24.301878   13.549336   26.758522
  26 H     1.0000    0     1.008   22.620022   14.097357   26.116015
  27 H     1.0000    0     1.008   25.227844   15.117809   26.834111
  28 O     8.0000    0    15.999   28.478173   16.383926   21.240522
  29 H     1.0000    0     1.008   29.517522   15.155604   20.522426
  30 H     1.0000    0     1.008   27.041981   16.572898   20.182275
  31 O     8.0000    0    15.999   19.974405   18.632700   12.547782
  32 H     1.0000    0     1.008   19.766535   20.106686   13.624925
  33 H     1.0000    0     1.008   18.273652   18.651597   12.264323
  34 O     8.0000    0    15.999   26.834111   10.979309   18.235857
  35 H     1.0000    0     1.008   27.401029   10.847028   19.974405
  36 H     1.0000    0     1.008   25.983734    9.354144   17.914604
  37 O     8.0000    0    15.999   14.758761    8.484870   18.953953
  38 H     1.0000    0     1.008   15.892597    7.067576   19.010645
  39 H     1.0000    0     1.008   13.246980    7.823466   19.672049
  40 O     8.0000    0    15.999   14.059562   15.117809   26.475063
  41 H     1.0000    0     1.008   14.475302   15.514652   28.175817
  42 H     1.0000    0     1.008   15.571343   14.343021   25.681378
  43 O     8.0000    0    15.999   19.728741   11.886377   13.095802
  44 H     1.0000    0     1.008   18.009090   11.640713   12.585576
  45 H     1.0000    0     1.008   19.785433   12.075350   14.909939
  46 O     8.0000    0    15.999   11.036001   23.394810   21.127138
  47 H     1.0000    0     1.008   11.413946   21.712953   20.881474
  48 H     1.0000    0     1.008    9.448631   23.432604   22.053104
  49 O     8.0000    0    15.999   16.365028   24.377467   29.725392
  50 H     1.0000    0     1.008   17.593350   23.016864   29.271858
  51 H     1.0000    0     1.008   17.423275   25.775864   30.254515
  52 O     8.0000    0    15.999   10.922617   29.989954   27.306543
  53 H     1.0000    0     1.008   11.735199   28.345892   27.060878
  54 H     1.0000    0     1.008   11.867480   30.651358   28.704940
  55 O     8.0000    0    15.999   11.187179   17.706734   22.960173
  56 H     1.0000    0     1.008   11.867480   16.724076   24.358570
  57 H     1.0000    0     1.008   12.321014   17.102022   21.731851
  58 O     8.0000    0    15.999   27.287645   10.676953   23.508193
  59 H     1.0000    0     1.008   29.139577   10.317905   23.980625
  60 H     1.0000    0     1.008   26.796317   11.961966   24.717618
  61 O     8.0000    0    15.999   27.098673   18.084679   25.813659
  62 H     1.0000    0     1.008   27.854563   17.158713   24.396364
  63 H     1.0000    0     1.008   28.251406   18.292549   27.230954
  64 O     8.0000    0    15.999   17.139816   29.063988   24.925488
  65 H     1.0000    0     1.008   15.798110   27.930152   25.662481
  66 H     1.0000    0     1.008   18.783878   28.478173   25.511303
  67 O     8.0000    0    15.999   12.226528   15.590241   18.443727
  68 H     1.0000    0     1.008   13.700514   14.626480   18.103576
  69 H     1.0000    0     1.008   10.771439   14.720967   17.952398
  70 O     8.0000    0    15.999   22.582227   28.100228   24.793207
  71 H     1.0000    0     1.008   22.865686   26.342782   24.509748
  72 H     1.0000    0     1.008   23.659371   28.251406   26.286091
  73 O     8.0000    0    15.999   30.046646   24.339673   24.925488
  74 H     1.0000    0     1.008   28.704940   23.130248   24.679823
  75 H     1.0000    0     1.008   31.634015   23.394810   25.190049
  76 O     8.0000    0    15.999   19.709844   23.375912   14.928836
  77 H     1.0000    0     1.008   18.670494   24.717618   14.305227
  78 H     1.0000    0     1.008   19.539768   23.545988   16.780768
  79 O     8.0000    0    15.999   20.881474   20.919268   28.591556
  80 H     1.0000    0     1.008   22.015309   20.749193   27.155365
  81 H     1.0000    0     1.008   20.427940   19.275207   29.347447
  82 O     8.0000    0    15.999   25.983734   23.224734   15.420165
  83 H     1.0000    0     1.008   27.268748   23.205837   14.116254
  84 H     1.0000    0     1.008   24.396364   24.018419   14.720967
  85 O     8.0000    0    15.999   21.599570   12.661165   18.198063
  86 H     1.0000    0     1.008   23.357015   13.001316   17.820117
  87 H     1.0000    0     1.008   21.523981   11.376151   19.426385
  88 O     8.0000    0    15.999   25.662481   24.094008   20.598015
  89 H     1.0000    0     1.008   27.098673   25.303433   20.446837
  90 H     1.0000    0     1.008   25.435714   23.697166   18.802775
  91 O     8.0000    0    15.999   13.795001   25.662481   17.479967
  92 H     1.0000    0     1.008   12.604473   25.530200   18.878364
  93 H     1.0000    0     1.008   15.514652   25.341227   18.122474
  94 O     8.0000    0    15.999   30.424591   21.297214   18.878364
  95 H     1.0000    0     1.008   28.856118   22.204282   19.426385
  96 H     1.0000    0     1.008   29.800981   19.596460   19.142926
  97 O     8.0000    0    15.999   12.132042   10.091138   14.607583
  98 H     1.0000    0     1.008   11.999761    8.447076   13.851693
  99 H     1.0000    0     1.008   13.284775   10.110035   16.062672
 100 O     8.0000    0    15.999   24.226289    8.447076   29.026193
 101 H     1.0000    0     1.008   24.831001    9.769884   27.854563
 102 H     1.0000    0     1.008   25.454611    8.465973   30.367899
 103 O     8.0000    0    15.999   19.010645   12.774549   25.605789
 104 H     1.0000    0     1.008   18.708289   11.678508   27.041981
 105 H     1.0000    0     1.008   19.313001   11.508432   24.169597
 106 O     8.0000    0    15.999   32.182036   14.040665   18.198063
 107 H     1.0000    0     1.008   33.164694   12.528884   18.368138
 108 H     1.0000    0     1.008   31.407248   13.927282   16.516206
 109 O     8.0000    0    15.999   18.292549   28.515967   19.672049
 110 H     1.0000    0     1.008   17.744528   28.950604   21.297214
 111 H     1.0000    0     1.008   19.993302   29.082885   19.596460
 112 Q     0.6645    0     0.000   23.413707   11.508432    7.596699
 113 Q     0.6645    0     0.000   21.920823   11.905275    9.750987
 114 Q    -1.3290    0     0.000   22.128693   11.243870    8.428179
 115 Q     0.6645    0     0.000    3.760555   20.749193   30.349002
 116 Q     0.6645    0     0.000    4.421959   18.027987   29.309652
 117 Q    -1.3290    0     0.000    3.571582   19.350796   29.460830
 118 Q     0.6645    0     0.000   36.887454   17.272097   22.298768
 119 Q     0.6645    0     0.000   37.208708   15.590241   24.509748
 120 Q    -1.3290    0     0.000   37.265399   16.931946   23.772755
 121 Q     0.6645    0     0.000   22.506638   33.183591   33.051310
 122 Q     0.6645    0     0.000   19.766535   33.372564   31.955269
 123 Q    -1.3290    0     0.000   21.372803   33.788303   32.144242
 124 Q     0.6645    0     0.000   13.058008   16.931946    9.070685
 125 Q     0.6645    0     0.000   10.223418   17.196508    9.732090
 126 Q    -1.3290    0     0.000   11.470638   16.931946    8.787227
 127 Q     0.6645    0     0.000   17.479967    3.401507   17.272097
 128 Q     0.6645    0     0.000   19.634255    5.461309   16.591795
 129 Q    -1.3290    0     0.000   18.462624    4.743213   17.461069
 130 Q     0.6645    0     0.000   19.426385   27.590002   10.544672
 131 Q     0.6645    0     0.000   16.667385   26.588447   10.469083
 132 Q    -1.3290    0     0.000   18.027987   27.155365   11.168281
 133 Q     0.6645    0     0.000   23.092453   15.873700   12.113145
 134 Q     0.6645    0     0.000   24.623132   15.968186    9.505322
 135 Q    -1.3290    0     0.000   24.282981   15.495754   11.073795
 136 Q     0.6645    0     0.000    6.160507   16.856357   10.582466
 137 Q     0.6645    0     0.000    7.294343   18.783878   12.547782
 138 Q    -1.3290    0     0.000    7.180959   17.385480   11.697405
 139 Q     0.6645    0     0.000    8.843918   13.681617    4.157397
 140 Q     0.6645    0     0.000    9.958857   14.418610    6.935295
 141 Q    -1.3290    0     0.000    9.240761   13.454850    5.763665
 142 Q     0.6645    0     0.000   35.300084   23.300323   15.420165
 143 Q     0.6645    0     0.000   33.504844   22.279871   17.423275
 144 Q    -1.3290    0     0.000   34.978831   22.695611   16.856357
 145 Q     0.6645    0     0.000   15.476857   31.445043   18.519316
 146 Q     0.6645    0     0.000   12.585576   31.690707   18.538213
 147 Q    -1.3290    0     0.000   14.059562   32.125344   18.859467
 148 Q     0.6645    0     0.000   20.484631   20.068892   39.419687
 149 Q     0.6645    0     0.000   19.218515   20.087789   36.849660
 150 Q    -1.3290    0     0.000   19.294104   19.785433   38.418132
 151 Q     0.6645    0     0.000    9.240761   39.174023   21.618467
 152 Q     0.6645    0     0.000   10.412391   40.969263   19.596460
 153 Q    -1.3290    0     0.000   10.374596   40.213372   21.013755
 154 Q     0.6645    0     0.000   19.407487   35.205598    9.788781
 155 Q     0.6645    0     0.000   20.276761   33.089105   11.546227
 156 Q    -1.3290    0     0.000   20.409042   33.977276   10.261213
 157 Q     0.6645    0     0.000   33.202488    8.390384   23.186940
 158 Q     0.6645    0     0.000   32.484392    7.483315   25.927043
 159 Q    -1.3290    0     0.000   32.276522    8.201411   24.471953
 160 Q     0.6645    0     0.000   34.279632   13.114699   30.802536
 161 Q     0.6645    0     0.000   31.879680   14.758761   31.407248
 162 Q    -1.3290    0     0.000   33.202488   13.870590   31.728502
 163 Q     0.6645    0     0.000   19.331898   14.891042   32.843440
 164 Q     0.6645    0     0.000   20.257864   13.700514   30.462385
 165 Q    -1.3290    0     0.000   19.823227   14.891042   31.331659
 166 Q     0.6645    0     0.000   34.959933   19.709844   30.367899
 167 Q     0.6645    0     0.000   34.808755   17.272097   31.728502
 168 Q    -1.3290    0     0.000   35.583543   18.594905   31.218276
 169 Q     0.6645    0     0.000   27.212056   13.738309   13.435953
 170 Q     0.6645    0     0.000   28.345892   11.848583   15.306782
 171 Q    -1.3290    0     0.000   28.345892   12.736754   13.927282
 172 Q     0.6645    0     0.000   27.401029    2.815692   30.556872
 173 Q     0.6645    0     0.000   27.646693    3.666069   27.627796
 174 Q    -1.3290    0     0.000   28.194714    3.061356   29.101782
 175 Q     0.6645    0     0.000    9.221864   21.977515   13.568234
 176 Q     0.6645    0     0.000    7.728980   22.827892   11.319460
 177 Q    -1.3290    0     0.000    7.936850   22.128693   12.680062
 178 Q     0.6645    0     0.000   11.073795   30.008851   13.058008
 179 Q     0.6645    0     0.000   11.508432   27.722282   14.550891
 180 Q    -1.3290    0     0.000   10.582466   28.818324   13.946179
 181 Q     0.6645    0     0.000   34.298529   13.001316   12.585576
 182 Q     0.6645    0     0.000   31.463940   14.059562   12.358809
 183 Q    -1.3290    0     0.000   33.089105   14.116254   12.321014
 184 Q     0.6645    0     0.000   24.131803   31.369454    6.141610
 185 Q     0.6645    0     0.000   21.335008   31.652913    7.124268
 186 Q    -1.3290    0     0.000   22.506638   31.085995    6.179404
 187 Q     0.6645    0     0.000   34.506399   15.212295    9.165172
 188 Q     0.6645    0     0.000   35.999283   16.100467    6.632939
 189 Q    -1.3290    0     0.000   35.281187   15.042220    7.691185
 190 Q     0.6645    0     0.000   22.260974   -0.888171   26.342782
 191 Q     0.6645    0     0.000   24.925488   -0.321253   26.550652
 192 Q    -1.3290    0     0.000   23.451501    0.037795   26.777419
 193 Q     0.6645    0     0.000   35.791413   24.755412   19.634255
 194 Q     0.6645    0     0.000   35.999283   24.566440   22.563330
 195 Q    -1.3290    0     0.000   35.961488   25.303433   21.108241
 196 Q     0.6645    0     0.000   41.536180   22.808994   25.567995
 197 Q     0.6645    0     0.000   40.572420   25.681378   25.794762
 198 Q    -1.3290    0     0.000   40.818084   24.169597   26.267193
 199 Q     0.6645    0     0.000   17.782323   22.733405   40.402345
 200 Q     0.6645    0     0.000   17.064227   23.583782   43.161345
 201 Q    -1.3290    0     0.000   17.196508   23.678268   41.573975
 202 Q     0.6645    0     0.000    5.877048   11.413946   36.131564
 203 Q     0.6645    0     0.000    5.574692   13.681617   34.336324
 204 Q    -1.3290    0     0.000    6.141610   12.321014   34.827653
 205 Q     0.6645    0     0.000   33.920584   30.254515   16.194953
 206 Q     0.6645    0     0.000   35.715824   31.350557   18.084679
 207 Q    -1.3290    0     0.000   35.224495   31.067098   16.610693
 208 Q     0.6645    0     0.000    8.749432   22.638919    6.803014
 209 Q     0.6645    0     0.000    7.029781   24.887693    7.634494
 210 Q    -1.3290    0     0.000    8.390384   24.094008    7.369932
 211 Q     0.6645    0     0.000   24.585337   13.228083   38.569310
 212 Q     0.6645    0     0.000   22.582227   13.738309   40.685804
 213 Q    -1.3290    0     0.000   23.130248   13.284775   39.249612
 214 Q     0.6645    0     0.000   34.695372   16.232747   18.330343
 215 Q     0.6645    0     0.000   36.074872   18.897261   17.876809
 216 Q    -1.3290    0     0.000   35.923694   17.328789   18.292549
 217 Q     0.6645    0     0.000    3.363713   28.497070   13.549336
 218 Q     0.6645    0     0.000    6.179404   29.045091   13.776104
 219 Q    -1.3290    0     0.000    4.686521   29.347447   13.927282
 220 Q     0.6645    0     0.000    8.692740   36.622892   11.980864
 221 Q     0.6645    0     0.000    9.826576   35.810310   14.702069
 222 Q    -1.3290    0     0.000    9.750987   36.585098   13.284775
 223 Q     0.6645    0     0.000   22.298768    7.596699    9.051788
 224 Q     0.6645    0     0.000   24.320775    5.933740    7.804569
 225 Q    -1.3290    0     0.000   23.149145    6.292788    8.881713
 226 Q     0.6645    0     0.000   29.574214   15.098912   36.830762
 227 Q     0.6645    0     0.000   26.796317   15.306782   35.300084
 228 Q    -1.3290    0     0.000   27.986844   14.739864   36.377228
 229 Q     0.6645    0     0.000   27.004186    6.047124   22.563330
 230 Q     0.6645    0     0.000   29.725392    5.574692   23.319220
 231 Q    -1.3290    0     0.000   28.213611    5.140055   22.997967
 232 Q     0.6645    0     0.000   27.646693   19.218515    6.632939
 233 Q     0.6645    0     0.000   29.460830   20.616912    8.503768
[...]
 320   Q   :   -0.095353405   -0.232120378   -0.118145432
 321   Q   :   -0.137263608    0.268164270   -0.021256104
 322   Q   :    0.239145594   -0.033493723    0.138801454
 323   Q   :    0.284465421    0.058166090   -0.036546758
 324   Q   :   -0.173831957    0.174171238    0.082137762
 325   Q   :   -0.101433413   -0.234465769   -0.054825735
 326   Q   :    0.007504423   -0.267787662   -0.007038339
 327   Q   :   -0.169022684    0.169691844    0.151166868
 328   Q   :    0.165118000    0.103521161   -0.145920235
 329   Q   :   -0.196904096   -0.055336798    0.216841690
 330   Q   :    0.305984826   -0.016602054    0.034087560
 331   Q   :   -0.105363051    0.076806912   -0.243078330
 332   Q   :    0.098897028    0.262069815   -0.134849176
 333   Q   :   -0.277160993   -0.019672814    0.062316100
 334   Q   :    0.181735394   -0.241688046    0.064023027
 335   Q   :   -0.181644769   -0.142475189    0.162403678
 336   Q   :    0.079289886    0.311789020    0.026171662
 337   Q   :    0.109336433   -0.158578443   -0.183537081
 338   Q   :    0.220117847   -0.083765756    0.180643213
 339   Q   :   -0.186016410   -0.216372408   -0.117628050
 340   Q   :   -0.037740843    0.296597794   -0.063206334
 341   Q   :   -0.000328391   -0.220948557   -0.141123186
 342   Q   :    0.235197462    0.164589562    0.034430382
 343   Q   :   -0.229792421    0.066486981    0.098625116
 344   Q   :    0.008155927   -0.232700749    0.047777821
 345   Q   :    0.055526479    0.225587562    0.114667472
 346   Q   :   -0.064026435    0.003222199   -0.151640122
 347   Q   :    0.147255658   -0.113876848   -0.241994098
 348   Q   :   -0.011568130   -0.149610641    0.254864438
 349   Q   :   -0.133207697    0.251241303   -0.024109522
 350   Q   :    0.183270418    0.230029098    0.069314025
 351   Q   :    0.042144693   -0.251080515    0.101713593
 352   Q   :   -0.215179361    0.023983196   -0.183635102
 353   Q   :   -0.164214662    0.202913322   -0.039776452
 354   Q   :   -0.054508665   -0.220829452    0.191262604
 355   Q   :    0.220318627    0.017447015   -0.142251801
 356   Q   :   -0.091770833   -0.135786183   -0.232497339
 357   Q   :   -0.094132542    0.261257416    0.061165119
 358   Q   :    0.176651244   -0.124229909    0.173634147
 359   Q   :   -0.018579759    0.087809270   -0.271013784
 360   Q   :   -0.115165654   -0.220812616    0.117138705
 361   Q   :    0.137244588    0.138970646    0.150878423
 362   Q   :    0.181407580   -0.187353996   -0.152543025
 363   Q   :   -0.251717741   -0.129381774    0.157597288
 364   Q   :    0.061046946    0.330287817   -0.006536333
 365   Q   :   -0.159622104   -0.063143904   -0.236358389
 366   Q   :   -0.088412641    0.107640985    0.220542500
 367   Q   :    0.258552334   -0.051052143    0.017562637
 368   Q   :    0.005548435   -0.149436327    0.290703832
 369   Q   :   -0.182867171   -0.125742854   -0.199975756
 370   Q   :    0.175792380    0.276575345   -0.089903591
 371   Q   :    0.173121679   -0.063310970    0.207105925
 372   Q   :   -0.040588276    0.258822550   -0.132647563
 373   Q   :   -0.133077362   -0.189153966   -0.074706870
 374   Q   :    0.165741229    0.047252460    0.212820697
 375   Q   :   -0.213311549   -0.153695019    0.008333211
 376   Q   :    0.048728291    0.112634474   -0.229780997
 377   Q   :    0.069032305    0.233478442   -0.200592727
 378   Q   :   -0.127493331    0.020994411    0.214811229
 379   Q   :    0.062466643   -0.253037965   -0.022750263
 380   Q   :   -0.067803558    0.266841489   -0.091805049
 381   Q   :    0.194795752   -0.151273493   -0.075196676
 382   Q   :   -0.126031918   -0.102019837    0.153776414
 383   Q   :   -0.162386002    0.225079684    0.046315709
 384   Q   :    0.022221490   -0.165727639   -0.223285376
 385   Q   :    0.142930782   -0.066560742    0.160294134
 386   Q   :   -0.032932367    0.332729823    0.115960264
 387   Q   :   -0.125321688   -0.167780849    0.214287964
 388   Q   :    0.152013496   -0.174063649   -0.328333148
 389   Q   :   -0.223727285   -0.046219356   -0.173048339
 390   Q   :    0.016878861    0.178460546    0.209870083
 391   Q   :    0.202521574   -0.146381971   -0.030843944
 392   Q   :   -0.099525991   -0.150827460   -0.174414469
 393   Q   :    0.054020554    0.260886441   -0.008472336
 394   Q   :    0.044222948   -0.109767420    0.178165560
 395   Q   :   -0.253600956    0.130949669    0.011749135
 396   Q   :    0.237177256    0.096202108   -0.022285884
 397   Q   :   -0.005158821   -0.233813056    0.016582280
 398   Q   :   -0.179699411   -0.054026720    0.166291867
 399   Q   :    0.265732866   -0.104093411   -0.004223763
 400   Q   :   -0.084406831    0.149929079   -0.156140739
 401   Q   :    0.012384216    0.003635644    0.266866519
 402   Q   :   -0.016350039   -0.197010861   -0.182922066
 403   Q   :   -0.005247041    0.184026972   -0.085520627
 404   Q   :    0.138400551   -0.078135192   -0.239185951
 405   Q   :   -0.285065624    0.124701222    0.030980048
 406   Q   :    0.144099091   -0.044092000    0.213124162
 407   Q   :   -0.155069237    0.200475610   -0.051515866
 408   Q   :    0.179345375   -0.043596460    0.199073427
 409   Q   :   -0.021913882   -0.148826870   -0.148820040
 410   Q   :    0.081279204    0.199484894    0.202802516
 411   Q   :    0.004620663    0.044624075   -0.284754995
 412   Q   :   -0.086814986   -0.246614763    0.091838373
 413   Q   :   -0.196664385    0.003356924   -0.170008150
 414   Q   :    0.009488110    0.077848266    0.249799965
 415   Q   :    0.198537402   -0.076391350   -0.085220117
 416   Q   :    0.149897191   -0.215459992    0.106862491
 417   Q   :   -0.200973378    0.090018880    0.111092211
 418   Q   :    0.059237046    0.120948025   -0.222539693
 419   Q   :   -0.283390289   -0.005053797   -0.049422165
 420   Q   :    0.125148506    0.070098658    0.208130621
 421   Q   :    0.139647596   -0.077439834   -0.159780956
 422   Q   :    0.068109015   -0.135595432    0.248614998
 423   Q   :    0.155971538    0.239189393   -0.106554159
 424   Q   :   -0.217896022   -0.089874237   -0.145879042
 425   Q   :   -0.256623870   -0.144522022    0.039485692
 426   Q   :    0.240853678   -0.051032621    0.130366158
 427   Q   :    0.019091026    0.193965015   -0.161334449
 428   Q   :    0.018636959   -0.284236564   -0.044899939
 429   Q   :    0.089037961    0.171416816   -0.183754954
 430   Q   :   -0.110171865    0.104905549    0.233510939
 431   Q   :    0.238561343   -0.112358144    0.062086905
 432   Q   :   -0.232705609    0.028937104    0.180593703
 433   Q   :   -0.012470009    0.094104512   -0.243839994
 434   Q   :   -0.178177834    0.163961129    0.138733613
 435   Q   :    0.037013913    0.015988516   -0.288347729
 436   Q   :    0.149519892   -0.184380769    0.154269883
 437   Q   :    0.008078616    0.138087763   -0.230134234
 438   Q   :   -0.162415159    0.084908211    0.212300621
 439   Q   :    0.154223875   -0.232056885    0.023617418
 440   Q   :    0.133508106   -0.268009321    0.067216979
 441   Q   :    0.121869809    0.239827114    0.112689260
 442   Q   :   -0.248885863    0.033724595   -0.181202176
 443   Q   :    0.090194449    0.126922864    0.217617955
 444   Q   :   -0.098351637   -0.269744270   -0.024588485
 445   Q   :    0.007255471    0.143771692   -0.199028488
 446   Q   :   -0.106848818    0.262902012   -0.038067593
 447   Q   :    0.227400147   -0.065452949    0.095573396
 448   Q   :   -0.119689467   -0.202061875   -0.055354366
 449   Q   :   -0.212311922   -0.091245599   -0.155307598
 450   Q   :    0.271797719   -0.018347090   -0.073748923
 451   Q   :   -0.052978878    0.106347677    0.226672300
 452   Q   :   -0.126258219   -0.216296760    0.151098671
 453   Q   :   -0.015544253    0.276120550    0.085691545
 454   Q   :    0.150719116   -0.069426108   -0.242456586
 455   Q   :    0.136263625    0.218698752    0.205909010
 456   Q   :   -0.268487286   -0.093651278    0.036666459
 457   Q   :    0.137542989   -0.118907064   -0.238491108
 458   Q   :    0.178842603    0.141555268   -0.165467906
 459   Q   :    0.085462011   -0.256939335    0.125024497
 460   Q   :   -0.268035354    0.114868252    0.035586845
 461   Q   :    0.214050083    0.169146609   -0.063482106
 462   Q   :   -0.198999773   -0.081752876   -0.202117873
 463   Q   :   -0.019223751   -0.095087078    0.267488596
 464   Q   :   -0.191771439   -0.196528819    0.001306040
 465   Q   :    0.061736623    0.195728060    0.234036460
 466   Q   :    0.132937531    0.004213036   -0.229870326
 467   Q   :    0.148624774   -0.013247490   -0.257575622
 468   Q   :   -0.211880983    0.237770023    0.052805790
 469   Q   :    0.052430561   -0.223111190    0.194418703
 470   Q   :    0.105589138    0.246155647   -0.015205227
 471   Q   :   -0.114352386   -0.131291739    0.203870245
 472   Q   :   -0.001437125   -0.111246682   -0.181806451
 473   Q   :    0.126425421   -0.159305907   -0.182311858
 474   Q   :   -0.161229811    0.226406705   -0.024252708
 475   Q   :    0.026494804   -0.074225444    0.205067686
 476   Q   :   -0.160123895   -0.192881709   -0.128277071
 477   Q   :   -0.042346909    0.266370450   -0.025221859
 478   Q   :    0.192272390   -0.071800129    0.162652167
 479   Q   :    0.149789952    0.217641404    0.113132640
 480   Q   :    0.112278838   -0.204457106   -0.129973342
 481   Q   :   -0.255785785   -0.015873595    0.007521842
 482   Q   :    0.155008775   -0.057140213   -0.203748080
 483   Q   :   -0.288214827    0.004930821    0.023798409
 484   Q   :    0.121871319    0.056214666    0.176102220
 485   Q   :    0.078129200    0.218104616    0.151058993
 486   Q   :    0.144614820   -0.141917883   -0.155471457
 487   Q   :   -0.221976034   -0.065791289    0.012938843
 488   Q   :    0.135406840   -0.251957998   -0.023274748
 489   Q   :    0.100391889    0.234807521    0.126240282
 490   Q   :   -0.241459616    0.022440815   -0.097813686
 491   Q   :    0.107551682   -0.196075518   -0.166538618
 492   Q   :   -0.064703428    0.004017021    0.300231720
 493   Q   :   -0.036074177    0.197882616   -0.127248918
 494   Q   :   -0.029290448   -0.260178206   -0.040249304
 495   Q   :   -0.068163498    0.125577930    0.254527636
 496   Q   :    0.094365860    0.135088184   -0.207399089
 497   Q   :    0.285520994   -0.082893930   -0.039573541
 498   Q   :   -0.224487980   -0.183618109    0.039552262
 499   Q   :   -0.055237640    0.265357317   -0.004005980
 500   Q   :   -0.238502349    0.096073458   -0.102287252
 501   Q   :    0.139387080   -0.195520549   -0.078796051
 502   Q   :    0.109014942    0.102132544    0.179485376
 503   Q   :    0.021435411    0.215771433    0.140191760
 504   Q   :   -0.181998911   -0.055186054   -0.226744717
 505   Q   :    0.156253224   -0.164608215    0.074625332
 506   Q   :    0.161425991   -0.229951628    0.057843508
 507   Q   :   -0.286176725    0.007438106    0.025320676
 508   Q   :    0.123899068    0.228439294   -0.089326571
 509   Q   :   -0.269223148   -0.090975052    0.092771757
 510   Q   :    0.052371697    0.162593696   -0.196381064
 511   Q   :    0.204698979   -0.081234233    0.094262925
 512   Q   :   -0.094394267   -0.277439495   -0.051560368
 513   Q   :    0.079224335    0.089857897    0.284372055
 514   Q   :    0.017823863    0.183398214   -0.240494744
 515   Q   :   -0.121470351    0.260254670    0.073971370
 516   Q   :    0.213517309   -0.094903138    0.079382089
 517   Q   :   -0.105063750   -0.156746093   -0.160628235
 518   Q   :    0.162227573   -0.221214484    0.081622497
 519   Q   :   -0.121796034    0.237742080    0.156211728
 520   Q   :   -0.037061571   -0.017968407   -0.230080812
 521   Q   :   -0.260771859   -0.123937946   -0.062509971
 522   Q   :    0.180104932   -0.083960310    0.183953061
 523   Q   :    0.080236628    0.209527603   -0.137462286
 524   Q   :   -0.179447092   -0.204837372    0.086817738
 525   Q   :    0.239933976   -0.057429340   -0.125054551
 526   Q   :   -0.057807066    0.274476438    0.041846005
 527   Q   :   -0.038306909   -0.303372484    0.014498758
 528   Q   :    0.138935723    0.131292779    0.216020855
 529   Q   :   -0.101578186    0.166584441   -0.233178391
 530   Q   :   -0.223645487   -0.149288896   -0.021405197
 531   Q   :    0.132080703    0.077831916    0.263250512
 532   Q   :    0.085431549    0.067199095   -0.246579607
 533   Q   :   -0.031328978    0.207461858   -0.182390393
 534   Q   :    0.191085323   -0.190055122   -0.011180256
 535   Q   :   -0.160420459   -0.012867823    0.197086509
 536   Q   :   -0.032610277    0.202796050   -0.224905403
 537   Q   :    0.183793971   -0.240691301   -0.070407546
 538   Q   :   -0.154668798    0.040021665    0.301331770
 539   Q   :    0.045772995   -0.226745227   -0.194592004
 540   Q   :   -0.053827282   -0.074968873    0.287083676
 541   Q   :    0.012459129    0.287835734   -0.095635364
 542   Q   :   -0.060157192   -0.251033490    0.070310615
 543   Q   :   -0.169019742    0.161758856   -0.103474723
 544   Q   :    0.227692954    0.095463769    0.036149441
 545   Q   :   -0.263187175   -0.100371049   -0.115897434
 546   Q   :    0.224639913   -0.218356167    0.046745440
 547   Q   :    0.041790865    0.318882006    0.068411221
 548   Q   :   -0.208529822    0.224636263    0.050230480
 549   Q   :    0.297297804    0.017026206    0.059131027
 550   Q   :   -0.093792836   -0.235255630   -0.118658153
 551   Q   :    0.077470287   -0.103317768    0.272780711
 552   Q   :   -0.140389388    0.178560584   -0.044296513
 553   Q   :    0.062200164   -0.076050428   -0.225754099
 554   Q   :    0.128688953    0.197213165   -0.130670178
 555   Q   :    0.100539837   -0.135736133    0.234006657
 556   Q   :   -0.229186747   -0.059819979   -0.095686442
 557   Q   :    0.047614164   -0.225514855   -0.132817312
 558   Q   :   -0.172903504    0.020437055    0.226412135
 559   Q   :    0.122010476    0.209106188   -0.087068911
 560   Q   :    0.021725338   -0.244654647   -0.021328828
 561   Q   :    0.025008475    0.196381626   -0.175948480
 562   Q   :   -0.044416890    0.054229936    0.198101127
 563   Q   :    0.155624657   -0.192053665   -0.005140659
 564   Q   :   -0.099495454    0.155221680   -0.187290642
 565   Q   :   -0.055813477    0.040493289    0.191272693
 566   Q   :   -0.217591941   -0.118414177   -0.134526022
 567   Q   :    0.126094420   -0.071071779    0.227383437
 568   Q   :    0.088745789    0.184827421   -0.103184832
 569   Q   :    0.213483902    0.181538206    0.119141122
 570   Q   :   -0.017713970   -0.301600767    0.111486308
 571   Q   :   -0.188803184    0.113199611   -0.228374743
 572   Q   :    0.103184879   -0.000619573   -0.260059020
 573   Q   :   -0.043366969   -0.164240574    0.143432821
 574   Q   :   -0.064792790    0.161626176    0.109092911
 575   Q   :    0.168996411    0.129969182   -0.148128116
 576   Q   :   -0.020594405   -0.061252163    0.293894891
 577   Q   :   -0.152961946   -0.069268506   -0.141335298
 578   Q   :    0.205079451   -0.065449211    0.170323757
 579   Q   :   -0.258272371   -0.041948293    0.053510107
 580   Q   :    0.045561218    0.099217135   -0.216229826
 581   Q   :    0.084901503    0.173664735   -0.236952895
 582   Q   :   -0.295476851    0.004553805    0.121988476
 583   Q   :    0.202336880   -0.177432053    0.108771438
 584   Q   :   -0.188876241   -0.183665239   -0.099945725
 585   Q   :    0.070179507    0.249063131   -0.144615200
 586   Q   :    0.115839958   -0.051967029    0.247024846
 587   Q   :   -0.000905397   -0.150821569    0.209427363
 588   Q   :    0.146938392    0.218667958   -0.057860808
 589   Q   :   -0.138980703   -0.066315098   -0.154022173
 590   Q   :   -0.009315322   -0.037755046   -0.290469653
 591   Q   :   -0.186824205   -0.065859554    0.190000797
 592   Q   :    0.186143168    0.107555509    0.087369991
 593   Q   :    0.253649823    0.051172355   -0.072326542
 594   Q   :   -0.078510304   -0.044200392    0.265446811
 595   Q   :   -0.170773066    0.002375483   -0.196155003
 596   Q   :    0.166514425   -0.193587098    0.237186343
 597   Q   :    0.053102497   -0.035656788   -0.276779711
 598   Q   :   -0.218271625    0.226959644    0.051086445
 599   Q   :   -0.232926172   -0.154540959    0.070856167
 600   Q   :    0.049799290    0.119038110   -0.221578890
 601   Q   :    0.197246608    0.039224335    0.162694499
 602   Q   :    0.004780275   -0.227735693   -0.138297086
 603   Q   :    0.108089307    0.233316120   -0.082379397
 604   Q   :   -0.121607614   -0.008915491    0.221097911
 605   Q   :    0.045662098    0.148415904   -0.265440427
 606   Q   :    0.158820210   -0.256986202    0.055687888
 607   Q   :   -0.196478662    0.110728528    0.212493270
 608   Q   :    0.197433681   -0.179751098   -0.032648647
 609   Q   :   -0.037430119    0.175084625    0.202940376
 610   Q   :   -0.160123266    0.008404922   -0.164475595

Difference to translation invariance:
           :    0.0001082043   -0.0001172287    0.0002502193

Difference to rotation invariance:
           :    0.0031150941   -0.0052225788   -0.0110343400

Norm of the cartesian gradient     ...    6.1760007310
RMS gradient                       ...    0.1443716081
MAX gradient                       ...    0.3335046404

-------
TIMINGS
-------

Total SCF gradient time            ...      249.907 sec

One electron gradient       ....      29.324 sec  ( 11.7%)
RI-J Coulomb gradient       ....      13.053 sec  (  5.2%)
COSX gradient               ....     161.051 sec  ( 64.4%)
XC gradient                 ....      19.498 sec  (  7.8%)

Maximum memory used throughout the entire SCFGRAD-calculation: 893.1 MB

                            ***************************************
                            *     ORCA property calculations      *
                            ***************************************

                                    ---------------------
                                    Active property flags
                                    ---------------------
   (+) Dipole Moment


------------------------------------------------------------------------------
                       ORCA ELECTRIC PROPERTIES CALCULATION
------------------------------------------------------------------------------

Dipole Moment Calculation                       ... on
Quadrupole Moment Calculation                   ... off
Polarizability Calculation                      ... off
GBWName                                         ... final002.orca.gbw
Electron density                                ... final002.orca.scfp
The origin for moment calculation is the CENTER OF MASS  = (20.410370, 18.992564 21.483751)

-------------
DIPOLE MOMENT
-------------
                                X             Y             Z
Electronic contribution:      1.85450       0.70945      -1.46078
Nuclear contribution   :     -1.81487     -14.00062      14.47388
                        -----------------------------------------
Total Dipole Moment    :      0.03963     -13.29117      13.01311
                        -----------------------------------------
Magnitude (a.u.)       :     18.60101
Magnitude (Debye)      :     47.28002



--------------------
Rotational spectrum 
--------------------
 
Rotational constants in cm-1:     0.001825     0.001476     0.001227 
Rotational constants in MHz :    54.722004    44.242388    36.786376 

 Dipole components along the rotational axes: 
x,y,z [a.u.] :    -7.791739    -4.189626    16.362565 
x,y,z [Debye]:   -19.805028   -10.649183    41.590336 

 

Timings for individual modules:

Sum of individual times         ...     1041.615 sec (=  17.360 min)
GTO integral calculation        ...       14.849 sec (=   0.247 min)   1.4 %
SCF iterations                  ...      772.243 sec (=  12.871 min)  74.1 %
SCF Gradient evaluation         ...      254.523 sec (=   4.242 min)  24.4 %
                             ****ORCA TERMINATED NORMALLY****
TOTAL RUN TIME: 0 days 0 hours 17 minutes 29 seconds 983 msec
