
                                 *****************
                                 * O   R   C   A *
                                 *****************

                                            #,                                       
                                            ###                                      
                                            ####                                     
                                            #####                                    
                                            ######                                   
                                           ########,                                 
                                     ,,################,,,,,                         
                               ,,#################################,,                 
                          ,,##########################################,,             
                       ,#########################################, ''#####,          
                    ,#############################################,,   '####,        
                  ,##################################################,,,,####,       
                ,###########''''           ''''###############################       
              ,#####''   ,,,,##########,,,,          '''####'''          '####       
            ,##' ,,,,###########################,,,                        '##       
           ' ,,###''''                  '''############,,,                           
         ,,##''                                '''############,,,,        ,,,,,,###''
      ,#''                                            '''#######################'''  
     '                                                          ''''####''''         
             ,#######,   #######,   ,#######,      ##                                
            ,#'     '#,  ##    ##  ,#'     '#,    #''#        ######   ,####,        
            ##       ##  ##   ,#'  ##            #'  '#       #        #'  '#        
            ##       ##  #######   ##           ,######,      #####,   #    #        
            '#,     ,#'  ##    ##  '#,     ,#' ,#      #,         ##   #,  ,#        
             '#######'   ##     ##  '#######'  #'      '#     #####' # '####'        



                  #######################################################
                  #                        -***-                        #
                  #          Department of theory and spectroscopy      #
                  #    Directorship and core code : Frank Neese         #
                  #        Max Planck Institute fuer Kohlenforschung    #
                  #                Kaiser Wilhelm Platz 1               #
                  #                 D-45470 Muelheim/Ruhr               #
                  #                      Germany                        #
                  #                                                     #
                  #                  All rights reserved                #
                  #                        -***-                        #
                  #######################################################


                         Program Version 5.0.3 -  RELEASE  -


 With contributions from (in alphabetic order):
   Daniel Aravena         : Magnetic Suceptibility
   Michael Atanasov       : Ab Initio Ligand Field Theory (pilot matlab implementation)
   Alexander A. Auer      : GIAO ZORA, VPT2 properties, NMR spectrum
   Ute Becker             : Parallelization
   Giovanni Bistoni       : ED, misc. LED, open-shell LED, HFLD
   Martin Brehm           : Molecular dynamics
   Dmytro Bykov           : SCF Hessian
   Vijay G. Chilkuri      : MRCI spin determinant printing, contributions to CSF-ICE
   Dipayan Datta          : RHF DLPNO-CCSD density
   Achintya Kumar Dutta   : EOM-CC, STEOM-CC
   Dmitry Ganyushin       : Spin-Orbit,Spin-Spin,Magnetic field MRCI
   Miquel Garcia          : C-PCM and meta-GGA Hessian, CC/C-PCM, Gaussian charge scheme
   Yang Guo               : DLPNO-NEVPT2, F12-NEVPT2, CIM, IAO-localization
   Andreas Hansen         : Spin unrestricted coupled pair/coupled cluster methods
   Benjamin Helmich-Paris : MC-RPA, TRAH-SCF, COSX integrals
   Lee Huntington         : MR-EOM, pCC
   Robert Izsak           : Overlap fitted RIJCOSX, COSX-SCS-MP3, EOM
   Marcus Kettner         : VPT2
   Christian Kollmar      : KDIIS, OOCD, Brueckner-CCSD(T), CCSD density, CASPT2, CASPT2-K
   Simone Kossmann        : Meta GGA functionals, TD-DFT gradient, OOMP2, MP2 Hessian
   Martin Krupicka        : Initial AUTO-CI
   Lucas Lang             : DCDCAS
   Marvin Lechner         : AUTO-CI (C++ implementation), FIC-MRCC
   Dagmar Lenk            : GEPOL surface, SMD
   Dimitrios Liakos       : Extrapolation schemes; Compound Job, initial MDCI parallelization
   Dimitrios Manganas     : Further ROCIS development; embedding schemes
   Dimitrios Pantazis     : SARC Basis sets
   Anastasios Papadopoulos: AUTO-CI, single reference methods and gradients
   Taras Petrenko         : DFT Hessian,TD-DFT gradient, ASA, ECA, R-Raman, ABS, FL, XAS/XES, NRVS
   Peter Pinski           : DLPNO-MP2, DLPNO-MP2 Gradient
   Christoph Reimann      : Effective Core Potentials
   Marius Retegan         : Local ZFS, SOC
   Christoph Riplinger    : Optimizer, TS searches, QM/MM, DLPNO-CCSD(T), (RO)-DLPNO pert. Triples
   Tobias Risthaus        : Range-separated hybrids, TD-DFT gradient, RPA, STAB
   Michael Roemelt        : Original ROCIS implementation
   Masaaki Saitow         : Open-shell DLPNO-CCSD energy and density
   Barbara Sandhoefer     : DKH picture change effects
   Avijit Sen             : IP-ROCIS
   Kantharuban Sivalingam : CASSCF convergence, NEVPT2, FIC-MRCI
   Bernardo de Souza      : ESD, SOC TD-DFT
   Georgi Stoychev        : AutoAux, RI-MP2 NMR, DLPNO-MP2 response
   Willem Van den Heuvel  : Paramagnetic NMR
   Boris Wezisla          : Elementary symmetry handling
   Frank Wennmohs         : Technical directorship


 We gratefully acknowledge several colleagues who have allowed us to
 interface, adapt or use parts of their codes:
   Stefan Grimme, W. Hujo, H. Kruse, P. Pracht,  : VdW corrections, initial TS optimization,
                  C. Bannwarth, S. Ehlert          DFT functionals, gCP, sTDA/sTD-DF
   Ed Valeev, F. Pavosevic, A. Kumar             : LibInt (2-el integral package), F12 methods
   Garnet Chan, S. Sharma, J. Yang, R. Olivares  : DMRG
   Ulf Ekstrom                                   : XCFun DFT Library
   Mihaly Kallay                                 : mrcc  (arbitrary order and MRCC methods)
   Jiri Pittner, Ondrej Demel                    : Mk-CCSD
   Frank Weinhold                                : gennbo (NPA and NBO analysis)
   Christopher J. Cramer and Donald G. Truhlar   : smd solvation model
   Lars Goerigk                                  : TD-DFT with DH, B97 family of functionals
   V. Asgeirsson, H. Jonsson                     : NEB implementation
   FAccTs GmbH                                   : IRC, NEB, NEB-TS, DLPNO-Multilevel, CI-OPT
                                                   MM, QMMM, 2- and 3-layer-ONIOM, Crystal-QMMM,
                                                   LR-CPCM, SF, NACMEs, symmetry and pop. for TD-DFT,
                                                   nearIR, NL-DFT gradient (VV10), updates on ESD,
                                                   ML-optimized integration grids
   S Lehtola, MJT Oliveira, MAL Marques          : LibXC Library
   Liviu Ungur et al                             : ANISO software


 Your calculation uses the libint2 library for the computation of 2-el integrals
 For citations please refer to: http://libint.valeyev.net

 Your ORCA version has been built with support for libXC version: 5.1.0
 For citations please refer to: https://tddft.org/programs/libxc/

 This ORCA versions uses:
   CBLAS   interface :  Fast vector & matrix operations
   LAPACKE interface :  Fast linear algebra routines
   SCALAPACK package :  Parallel linear algebra routines
   Shared memory     :  Shared parallel matrices
   BLAS/LAPACK       :  OpenBLAS 0.3.15  USE64BITINT DYNAMIC_ARCH NO_AFFINITY SkylakeX SINGLE_THREADED
        Core in use  :  SkylakeX
   Copyright (c) 2011-2014, The OpenBLAS Project


================================================================================

----- Orbital basis set information -----
Your calculation utilizes the basis: def2-SVP
   F. Weigend and R. Ahlrichs, Phys. Chem. Chem. Phys. 7, 3297 (2005).

The basis set includes element-specific modifications.

Your calculation utilizes the basis: aug-cc-pVTZ 
    H, B-Ne : Obtained from the ccRepo (grant-hill.group.shef.ac.uk/ccrepo) Feb. 2017
              R. A. Kendall, T. H. Dunning, Jr., R. J. Harrison, J. Chem. Phys. 96, 6796 (1992)
         He : Obtained from the ccRepo (grant-hill.group.shef.ac.uk/ccrepo) Feb. 2017
              D. E. Woon, T. H. Dunning, Jr., J. Chem. Phys. 100, 2975 (1994)
  Li-Be, Na : Obtained from the ccRepo (grant-hill.group.shef.ac.uk/ccrepo) Feb. 2017
              B. P. Prascher, D. E. Woon, K. A. Peterson, T. H. Dunning, Jr., A. K. Wilson, Theor. Chem. Acc. 128, 69 (2011)
         Mg : Obtained from the Peterson Research Group Website (tyr0.chem.wsu.edu/~kipeters) Feb. 2017
              B. P. Prascher, D. E. Woon, K. A. Peterson, T. H. Dunning, Jr., A. K. Wilson, Theor. Chem. Acc. 128, 69 (2011)
      Al-Ar : Obtained from the ccRepo (grant-hill.group.shef.ac.uk/ccrepo) Feb. 2017
              D. E. Woon, T. H. Dunning, Jr., J. Chem. Phys. 98, 1358 (1993)
      Sc-Zn : Obtained from the ccRepo (grant-hill.group.shef.ac.uk/ccrepo) Feb. 2017
              N. B. Balabanov, K. A. Peterson, J. Chem. Phys. 123, 064107 (2005)
              N. B. Balabanov, K. A. Peterson, J. Chem. Phys. 125, 074110 (2006)
      Ga-Kr : Obtained from the ccRepo (grant-hill.group.shef.ac.uk/ccrepo) Feb. 2017
              A. K. Wilson, D. E. Woon, K. A. Peterson, T. H. Dunning, Jr., J. Chem. Phys. 110, 7667 (1999)
     Ag, Au : Obtained from the Peterson Research Group Website (tyr0.chem.wsu.edu/~kipeters) Feb. 2017
              K. A. Peterson, C. Puzzarini, Theor. Chem. Acc. 114, 283 (2005)

Your calculation utilizes the basis: cc-pVTZ 
       H, B-Ne : Obtained from the ccRepo (grant-hill.group.shef.ac.uk/ccrepo) Feb. 2017
                 T. H. Dunning, Jr., J. Chem. Phys. 90, 1007 (1989)
            He : Obtained from the ccRepo (grant-hill.group.shef.ac.uk/ccrepo) Feb. 2017
                 D. E. Woon, T. H. Dunning, Jr., J. Chem. Phys. 100, 2975 (1994)
  Li-Be, Na-Mg : Obtained from the ccRepo (grant-hill.group.shef.ac.uk/ccrepo) Feb. 2017
                 B. P. Prascher, D. E. Woon, K. A. Peterson, T. H. Dunning, Jr., A. K. Wilson, Theor. Chem. Acc. 128, 69 (2011)
         Al-Ar : Obtained from the ccRepo (grant-hill.group.shef.ac.uk/ccrepo) Feb. 2017
                 D. E. Woon, T. H. Dunning, Jr., J. Chem. Phys. 98, 1358 (1993)
            Ca : Obtained from the Peterson Research Group Website (tyr0.chem.wsu.edu/~kipeters) Feb. 2017
                 J. Koput, K. A. Peterson, J. Phys. Chem. 106, 9595 (2002)
         Sc-Zn : Obtained from the ccRepo (grant-hill.group.shef.ac.uk/ccrepo) Feb. 2017
                 N. B. Balabanov, K. A. Peterson, J. Chem. Phys. 123, 064107 (2005)
                 N. B. Balabanov, K. A. Peterson, J. Chem. Phys. 125, 074110 (2006)
         Ga-Kr : Obtained from the ccRepo (grant-hill.group.shef.ac.uk/ccrepo) Feb. 2017
                 A. K. Wilson, D. E. Woon, K. A. Peterson, T. H. Dunning, Jr., J. Chem. Phys. 110, 7667 (1999)
             Y : Obtained from the ccRepo (grant-hill.group.shef.ac.uk/ccrepo) Feb. 2017
                 K. A. Peterson, D. Figgen, M. Dolg, H. Stoll, J. Chem. Phys. 126, 124101 (2007)
        Ag, Au : Obtained from the Peterson Research Group Website (tyr0.chem.wsu.edu/~kipeters) Feb. 2017
                 K. A. Peterson, C. Puzzarini, Theor. Chem. Acc. 114, 283 (2005)

----- AuxJ basis set information -----
Your calculation utilizes the auxiliary basis: def2/J
   F. Weigend, Phys. Chem. Chem. Phys. 8, 1057 (2006).

================================================================================
                                        WARNINGS
                       Please study these warnings very carefully!
================================================================================

WARNING: The globally-selected AuxJ basis set is optimized for use with ECPs
         Make sure a suitable alternative is explicitly given all heavy elements (Z>36)

INFO   : the flag for use of the SHARK integral package has been found!

================================================================================
                                       INPUT FILE
================================================================================
NAME = final039.orca.inp
|  1> ! NoMOPrint PrintBasis #MINIPRINT SMALLPRINT LARGEPRINT
|  2> ! ALLPOP XYZFILE
|  3> #! BP86 3-21G   TightSCF
|  4> ! ENGRAD
|  5> ! B3LYP NormalPNO PModel #DecontractAux
|  6> #! VerySlowConv 
|  7>  %maxcore 5000
|  8>  %scf  maxiter   500  end 
|  9> 
| 10> %pal
| 11>     nprocs 32
| 12> end
| 13> 
| 14> %basis
| 15>     NewGTO O    # New basis for oxygen
| 16>         "aug-cc-pVTZ"
| 17>     end
| 18>     NewGTO C    # New basis for carbon
| 19>         "aug-cc-pVTZ"
| 20>     end
| 21>     NewGTO H    # New basis for hydrogen
| 22>         "cc-pVTZ"
| 23>     end
| 24> end
| 25> 
| 26> * xyz 0   1
| 27>   C  12.06  11.06  12.32  #1
| 28>   H  13.07  11.45  12.52  #2
| 29>   H  12.16  9.96  12.49  #3
| 30>   C  11.58  11.25  10.92  #4
| 31>   H  11.26  12.32  10.77  #5
| 32>   H  12.46  11.02  10.33  #6
| 33>   C  10.46  10.23  10.57  #7
| 34>   H  9.64  10.22  11.24  #8
| 35>   H  10.91  9.23  10.7  #9
| 36>   C  9.88  10.34  9.18  #10
| 37>   H  8.95  9.74  9.02  #11
| 38>   H  10.64  9.94  8.42  #12
| 39>   O  9.54  11.69  8.93  #13
| 40>   H  8.7  11.82  9.44  #14
| 41>   O  11.14  11.56  13.27  #15
| 42>   H  11.32  12.53  13.35  #16
| 43>   O  10.71  6.91  11.46  #17
| 44>   H  11.6  6.99  11.78  #18
| 45>   H  10.07  7.26  12.1  #19
| 46>   O  15.42  12.18  11.22  #20
| 47>   H  15.52  11.22  11.38  #21
| 48>   H  16.3  12.52  10.89  #22
| 49>   O  14.33  12.4  8.46  #23
| 50>   H  14.9  12.12  7.72  #24
| 51>   H  14.79  12.14  9.26  #25
| 52>   O  12.46  13.93  14.71  #26
| 53>   H  12.13  14.8  14.5  #27
| 54>   H  13.32  13.84  14.33  #28
| 55>   O  7.22  12.25  10.27  #29
| 56>   H  6.39  12.11  9.79  #30
| 57>   H  7.21  13.12  10.62  #31
| 58>   O  15.31  10.47  14.85  #32
| 59>   H  15.28  9.57  14.43  #33
| 60>   H  15.15  11.06  14.14  #34
| 61>   O  13.55  8.83  8.28  #35
| 62>   H  14.11  8.93  7.49  #36
| 63>   H  12.79  8.32  8.03  #37
| 64>   O  10.24  5.32  13.81  #38
| 65>   H  10.55  5.95  14.52  #39
| 66>   H  9.61  5.98  13.43  #40
| 67>   O  9.91  14.63  9.26  #41
| 68>   H  10.59  14.87  9.91  #42
| 69>   H  10.06  13.68  8.98  #43
| 70>   O  7.58  14.48  12.18  #44
| 71>   H  8.21  14.97  12.75  #45
| 72>   H  7.23  13.8  12.79  #46
| 73>   O  8.86  11.18  14.55  #47
| 74>   H  8.33  11.09  13.73  #48
| 75>   H  9.75  11.06  14.13  #49
| 76>   O  14.84  8.96  10.91  #50
| 77>   H  14.55  8.93  9.95  #51
| 78>   H  14.19  8.33  11.24  #52
| 79>   O  11.85  11.55  5.96  #53
| 80>   H  12.55  11.59  6.53  #54
| 81>   H  11.13  11.76  6.57  #55
| 82>   O  17.49  13.53  10.21  #56
| 83>   H  17.23  14.41  10.52  #57
| 84>   H  18.41  13.36  10.48  #58
| 85>   O  13.37  7.11  12.31  #59
| 86>   H  13.58  7.28  13.24  #60
| 87>   H  13.75  6.24  12.18  #61
| 88>   O  11.43  7.12  8.52  #62
| 89>   H  11  7.18  9.37  #63
| 90>   H  10.71  6.75  7.96  #64
| 91>   O  17.49  10.1  11.81  #65
| 92>   H  17.9  9.69  10.93  #66
| 93>   H  18.15  10.79  11.98  #67
| 94>   O  15.09  13.65  13.67  #68
| 95>   H  15.22  13.34  12.76  #69
| 96>   H  15.66  14.41  13.81  #70
| 97>   O  9.16  12.33  6.13  #71
| 98>   H  9.4  13.27  5.85  #72
| 99>   H  9.01  12.32  7.08  #73
|100>   O  15.92  11.16  6.37  #74
|101>   H  16.5  11.91  6.25  #75
|102>   H  16.39  10.49  6.88  #76
|103>   O  13.86  14.99  8.66  #77
|104>   H  14.6  15.43  8.19  #78
|105>   H  14.12  14.06  8.56  #79
|106>   O  13.54  13.42  17.46  #80
|107>   H  13.87  12.5  17.52  #81
|108>   H  13.11  13.43  16.61  #82
|109>   O  7.27  10.07  12.07  #83
|110>   H  6.44  9.94  12.52  #84
|111>   H  7.17  10.66  11.38  #85
|112>   O  9.66  4.16  11.08  #86
|113>   H  10.34  4.88  11.22  #87
|114>   H  10.13  3.6  10.5  #88
|115>   O  8.43  7.61  12.92  #89
|116>   H  7.56  7.17  12.89  #90
|117>   H  8.42  8.44  12.48  #91
|118>   O  5.13  12.15  8.07  #92
|119>   H  4.27  12.46  8.35  #93
|120>   H  5.35  12.55  7.22  #94
|121>   O  11.98  16.67  13.63  #95
|122>   H  11.97  17.21  14.45  #96
|123>   H  12.69  16.97  13.04  #97
|124>   Q  0.6645  11.92$  11.48$  19.06$
|125>   Q  0.6645  12.68$  12.17$  20.15$
|126>   Q  -1.3290  11.98$  11.89$  19.74$
|127>   Q  0.6645  16.84$  5.05$  8.57$
|128>   Q  0.6645  17.7$  5.09$  9.94$
|129>   Q  -1.3290  17.29$  4.73$  9.25$
|130>   Q  0.6645  5.89$  3.35$  14.65$
|131>   Q  0.6645  6.8$  3.45$  15.81$
|132>   Q  -1.3290  6.05$  3.33$  15.46$
|133>   Q  0.6645  19.64$  12.38$  5.26$
|134>   Q  0.6645  18.92$  13.37$  6.17$
|135>   Q  -1.3290  19.45$  13.16$  5.57$
|136>   Q  0.6645  8.6$  5.61$  18.9$
|137>   Q  0.6645  8.15$  5.21$  20.35$
|138>   Q  -1.3290  8.4$  5.1$  19.56$
|139>   Q  0.6645  11.22$  5.87$  19.07$
|140>   Q  0.6645  11.82$  4.5$  19.37$
|141>   Q  -1.3290  11.74$  5.24$  18.96$
|142>   Q  0.6645  7.15$  16.91$  14.7$
|143>   Q  0.6645  6.99$  15.64$  15.52$
|144>   Q  -1.3290  7.06$  16.49$  15.42$
|145>   Q  0.6645  10.1$  15.91$  20.02$
|146>   Q  0.6645  9.82$  16.88$  18.89$
|147>   Q  -1.3290  9.72$  16.57$  19.67$
|148>   Q  0.6645  18.56$  8.72$  19.03$
|149>   Q  0.6645  19.58$  9.45$  19.69$
|150>   Q  -1.3290  19$  8.88$  19.67$
|151>   Q  0.6645  7.08$  12.86$  21.29$
|152>   Q  0.6645  8.63$  13.04$  20.93$
|153>   Q  -1.3290  7.76$  12.94$  20.75$
|154>   Q  0.6645  18.46$  13.59$  17.58$
|155>   Q  0.6645  17.24$  14.32$  18.2$
|156>   Q  -1.3290  17.95$  14.24$  17.75$
|157>   Q  0.6645  6.22$  13.15$  14.99$
|158>   Q  0.6645  7.32$  13.48$  15.9$
|159>   Q  -1.3290  6.57$  13.58$  15.64$
|160>   Q  0.6645  4.54$  10.49$  7.04$
|161>   Q  0.6645  5.34$  9.11$  6.71$
|162>   Q  -1.3290  4.66$  9.61$  7.01$
|163>   Q  0.6645  16.78$  18.33$  13.95$
|164>   Q  0.6645  18.12$  18.96$  13.55$
|165>   Q  -1.3290  17.58$  18.61$  14.08$
|166>   Q  0.6645  15.84$  18.65$  11.64$
|167>   Q  0.6645  14.45$  18.48$  12.3$
|168>   Q  -1.3290  15.28$  18.35$  12.24$
|169>   Q  0.6645  3.45$  15.56$  10.36$
|170>   Q  0.6645  2.09$  16.04$  10.23$
|171>   Q  -1.3290  2.7$  15.51$  10.08$
|172>   Q  0.6645  20.29$  16.3$  12.71$
|173>   Q  0.6645  19.73$  14.8$  12.65$
|174>   Q  -1.3290  19.87$  15.61$  12.97$
|175>   Q  0.6645  0.8$  10.12$  5.82$
|176>   Q  0.6645  0.02$  8.89$  6.01$
|177>   Q  -1.3290  0.6$  9.41$  6.23$
|178>   Q  0.6645  11.32$  2.45$  17.25$
|179>   Q  0.6645  10.93$  3.93$  17.76$
|180>   Q  -1.3290  10.82$  3.06$  17.64$
|181>   Q  0.6645  0.66$  6.16$  10.42$
|182>   Q  0.6645  2.08$  5.67$  10.68$
|183>   Q  -1.3290  1.25$  5.61$  10.5$
|184>   Q  0.6645  18.97$  7.68$  14.98$
|185>   Q  0.6645  19.04$  6.2$  15.1$
|186>   Q  -1.3290  19.35$  6.98$  14.91$
|187>   Q  0.6645  8.15$  2.71$  7.07$
|188>   Q  0.6645  7.96$  2.02$  8.51$
|189>   Q  -1.3290  8.39$  2.26$  7.78$
|190>   Q  0.6645  9.12$  10.32$  21.09$
|191>   Q  0.6645  10.54$  10.82$  20.82$
|192>   Q  -1.3290  9.89$  10.65$  21.31$
|193>   Q  0.6645  1.78$  14.22$  12.37$
|194>   Q  0.6645  0.42$  13.72$  12.63$
|195>   Q  -1.3290  1.17$  13.68$  12.27$
|196>   Q  0.6645  14.27$  19.04$  7.15$
|197>   Q  0.6645  15.16$  18.24$  6.14$
|198>   Q  -1.3290  14.99$  18.78$  6.78$
|199>   Q  0.6645  12.2$  15.77$  1.32$
|200>   Q  0.6645  11.74$  14.86$  2.47$
|201>   Q  -1.3290  11.71$  15.21$  1.67$
|202>   Q  0.6645  7.37$  8.54$  1.71$
|203>   Q  0.6645  6.01$  8.15$  1.21$
|204>   Q  -1.3290  6.62$  8.17$  1.74$
|205>   Q  0.6645  10.53$  16.59$  7.97$
|206>   Q  0.6645  11.91$  15.89$  8.09$
|207>   Q  -1.3290  11.36$  16.51$  7.83$
|208>   Q  0.6645  13.45$  2.06$  15.76$
|209>   Q  0.6645  12.62$  0.88$  15.1$
|210>   Q  -1.3290  12.92$  1.39$  15.73$
|211>   Q  0.6645  19.49$  12.38$  12.97$
|212>   Q  0.6645  20.32$  11.99$  11.72$
|213>   Q  -1.3290  19.88$  12.52$  12.24$
|214>   Q  0.6645  8.28$  5.2$  3.02$
|215>   Q  0.6645  7.51$  6.58$  2.88$
|216>   Q  -1.3290  7.77$  5.78$  2.67$
|217>   Q  0.6645  12.11$  18.85$  11.72$
|218>   Q  0.6645  13.08$  19.89$  12.3$
|219>   Q  -1.3290  12.84$  19.14$  12.05$
|220>   Q  0.6645  13.81$  10.22$  1.2$
|221>   Q  0.6645  14.06$  10.74$  2.5$
|222>   Q  -1.3290  13.58$  10.37$  1.98$
|223>   Q  0.6645  7.04$  3.44$  4.94$
|224>   Q  0.6645  6.58$  4.13$  6.22$
|225>   Q  -1.3290  7.11$  3.71$  5.72$
|226>   Q  0.6645  11.63$  3.11$  8.57$
|227>   Q  0.6645  10.12$  2.75$  8.56$
|228>   Q  -1.3290  10.89$  2.8$  8.89$
|229>   Q  0.6645  2.09$  12.78$  6.22$
|230>   Q  0.6645  2.89$  12.49$  4.88$
|231>   Q  -1.3290  2.53$  12.31$  5.63$
|232>   Q  0.6645  20.48$  10.66$  10.11$
|233>   Q  0.6645  21.98$  10.68$  10.29$
|234>   Q  -1.3290  21.21$  10.73$  10.55$
|235>   Q  0.6645  6.97$  14.77$  7.46$
|236>   Q  0.6645  8.15$  14.74$  8.48$
|237>   Q  -1.3290  7.42$  14.98$  8.13$
|238>   Q  0.6645  8.07$  17.12$  8.1$
|239>   Q  0.6645  9.09$  18.38$  8.08$
|240>   Q  -1.3290  8.63$  17.71$  7.76$
|241>   Q  0.6645  16.25$  16.49$  15.62$
|242>   Q  0.6645  16.26$  17.29$  16.92$
|243>   Q  -1.3290  15.88$  16.89$  16.28$
|244>   Q  0.6645  3.65$  7.64$  7.44$
|245>   Q  0.6645  4.01$  7.05$  6.16$
|246>   Q  -1.3290  3.66$  7$  6.92$
|247>   Q  0.6645  2.9$  12.16$  2.31$
|248>   Q  0.6645  3.88$  13.29$  2.7$
|249>   Q  -1.3290  3.48$  12.54$  2.82$
|250>   Q  0.6645  11.81$  18.83$  15.92$
|251>   Q  0.6645  10.75$  20$  16.04$
|252>   Q  -1.3290  11.24$  19.42$  15.65$
|253>   Q  0.6645  6.4$  5.21$  8.3$
|254>   Q  0.6645  5.09$  5.37$  7.55$
|255>   Q  -1.3290  5.81$  5$  7.75$
|256>   Q  0.6645  12$  10.06$  3.28$
|257>   Q  0.6645  11.34$  10.58$  4.66$
|258>   Q  -1.3290  11.4$  10.15$  3.94$
|259>   Q  0.6645  14.96$  10.33$  18$
|260>   Q  0.6645  14.64$  10.67$  16.45$
|261>   Q  -1.3290  14.51$  10.66$  17.29$
|262>   Q  0.6645  6.46$  5.75$  10.9$
|263>   Q  0.6645  7.77$  5.1$  10.44$
|264>   Q  -1.3290  7$  5.42$  10.35$
|265>   Q  0.6645  12.61$  6.9$  4.62$
|266>   Q  0.6645  11.57$  8.03$  4.64$
|267>   Q  -1.3290  11.86$  7.27$  4.77$
|268>   Q  0.6645  13.14$  15.56$  4.68$
|269>   Q  0.6645  14.22$  16.3$  3.96$
|270>   Q  -1.3290  13.59$  16.21$  4.5$
|271>   Q  0.6645  16.76$  4.96$  13.22$
|272>   Q  0.6645  15.57$  5.29$  12.29$
|273>   Q  -1.3290  16.3$  5.44$  12.7$
|274>   Q  0.6645  11.96$  20.79$  14.11$
|275>   Q  0.6645  11.96$  22$  13.06$
|276>   Q  -1.3290  12.27$  21.48$  13.67$
|277>   Q  0.6645  19.97$  11.83$  7.4$
|278>   Q  0.6645  20.48$  12.34$  8.73$
|279>   Q  -1.3290  19.92$  11.96$  8.2$
|280>   Q  0.6645  7.19$  1.09$  10.47$
|281>   Q  0.6645  5.98$  1.91$  10.17$
|282>   Q  -1.3290  6.68$  1.49$  9.97$
|283>   Q  0.6645  18.04$  16.41$  12.21$
|284>   Q  0.6645  16.78$  16.78$  11.48$
|285>   Q  -1.3290  17.49$  16.35$  11.55$
|286>   Q  0.6645  11.37$  4.1$  13.26$
|287>   Q  0.6645  11.47$  2.78$  12.42$
|288>   Q  -1.3290  11.78$  3.43$  12.9$
|289>   Q  0.6645  17.5$  12.86$  14.19$
|290>   Q  0.6645  17.64$  11.36$  14.31$
|291>   Q  -1.3290  17.94$  12.14$  14.27$
|292>   Q  0.6645  10.94$  12.12$  2.3$
|293>   Q  0.6645  10.27$  12.17$  1.02$
|294>   Q  -1.3290  10.38$  12.39$  1.81$
|295>   Q  0.6645  11.79$  18.26$  20.13$
|296>   Q  0.6645  12.09$  16.7$  19.76$
|297>   Q  -1.3290  12.24$  17.5$  20.06$
|298>   Q  0.6645  15$  4.9$  4.16$
|299>   Q  0.6645  16.04$  5.96$  4.54$
|300>   Q  -1.3290  15.63$  5.23$  4.62$
|301>   Q  0.6645  16.03$  20.93$  15.07$
|302>   Q  0.6645  16.62$  19.43$  15.5$
|303>   Q  -1.3290  16.25$  20.24$  15.58$
|304>   Q  0.6645  1.1$  5.2$  6.29$
|305>   Q  0.6645  1.25$  6.64$  6.07$
|306>   Q  -1.3290  0.82$  5.96$  6.12$
|307>   Q  0.6645  8.97$  14.1$  2.4$
|308>   Q  0.6645  8.03$  15.28$  2.94$
|309>   Q  -1.3290  8.32$  14.67$  2.39$
|310>   Q  0.6645  7.54$  14.23$  19.39$
|311>   Q  0.6645  8.06$  15.6$  19.19$
|312>   Q  -1.3290  7.65$  14.91$  18.96$
|313>   Q  0.6645  5.99$  18.16$  6.29$
|314>   Q  0.6645  7.55$  18.41$  6.3$
|315>   Q  -1.3290  6.73$  18.47$  5.99$
|316>   Q  0.6645  1.69$  4.66$  8.72$
|317>   Q  0.6645  2.5$  5.12$  7.64$
|318>   Q  -1.3290  2.19$  4.52$  8.09$
|319>   Q  0.6645  5.18$  6.78$  12.64$
|320>   Q  0.6645  5.74$  5.48$  12.92$
|321>   Q  -1.3290  5.8$  6.27$  12.78$
|322>   Q  0.6645  19.16$  9.84$  14.35$
|323>   Q  0.6645  17.79$  9.16$  13.72$
|324>   Q  -1.3290  18.38$  9.42$  14.32$
|325>   Q  0.6645  2.1$  16.48$  13.06$
|326>   Q  0.6645  2.83$  15.57$  13.96$
|327>   Q  -1.3290  2.63$  15.83$  13.23$
|328>   Q  0.6645  8.42$  9.47$  15.56$
|329>   Q  0.6645  8.39$  8.09$  14.74$
|330>   Q  -1.3290  8.53$  8.63$  15.41$
|331>   Q  0.6645  3.43$  15.6$  2.32$
|332>   Q  0.6645  4.96$  15.62$  2.39$
|333>   Q  -1.3290  4.18$  15.32$  2.57$
|334>   Q  0.6645  12.01$  13.49$  4.42$
|335>   Q  0.6645  13.44$  13.15$  3.87$
|336>   Q  -1.3290  12.73$  13.57$  3.92$
|337>   Q  0.6645  8.06$  9.87$  19.02$
|338>   Q  0.6645  7.79$  11.48$  19.37$
|339>   Q  -1.3290  7.87$  10.74$  18.91$
|340>   Q  0.6645  5.45$  17.51$  15.93$
|341>   Q  0.6645  3.79$  17.38$  16.23$
|342>   Q  -1.3290  4.57$  17.73$  16.04$
|343>   Q  0.6645  19.18$  12.28$  16.14$
|344>   Q  0.6645  20.43$  12.99$  16.5$
|345>   Q  -1.3290  19.83$  12.42$  16.61$
|346>   Q  0.6645  0.54$  7.78$  12.33$
|347>   Q  0.6645  0.81$  8.67$  11.08$
|348>   Q  -1.3290  1$  8.29$  11.81$
|349>   Q  0.6645  10.52$  15.41$  5.04$
|350>   Q  0.6645  9.11$  15.02$  4.83$
|351>   Q  -1.3290  9.88$  14.88$  4.99$
|352>   Q  0.6645  13.58$  13.14$  0.85$
|353>   Q  0.6645  14.3$  13.85$  -0.22$
|354>   Q  -1.3290  14.02$  13.16$  0.14$
|355>   Q  0.6645  16.07$  7.92$  7.82$
|356>   Q  0.6645  17.26$  8.58$  8.32$
|357>   Q  -1.3290  16.63$  8.48$  7.81$
|358>   Q  0.6645  8.56$  3.96$  14$
|359>   Q  0.6645  8.79$  3.74$  12.52$
|360>   Q  -1.3290  8.35$  3.7$  13.23$
|361>   Q  0.6645  5.14$  3.52$  11.65$
|362>   Q  0.6645  6.48$  3.55$  12.43$
|363>   Q  -1.3290  5.64$  3.57$  12.36$
|364>   Q  0.6645  11.29$  19.49$  8.47$
|365>   Q  0.6645  10.27$  19.67$  9.61$
|366>   Q  -1.3290  10.56$  19.72$  8.82$
|367>   Q  0.6645  4.9$  3.34$  9.01$
|368>   Q  0.6645  3.71$  2.94$  9.86$
|369>   Q  -1.3290  4.51$  3.16$  9.72$
|370>   Q  0.6645  16.61$  5.54$  16.31$
|371>   Q  0.6645  16.37$  5.88$  17.87$
|372>   Q  -1.3290  16.41$  6.02$  17.03$
|373>   Q  0.6645  13.79$  4.74$  10.63$
|374>   Q  0.6645  13.19$  3.97$  11.91$
|375>   Q  -1.3290  13.76$  4.39$  11.42$
|376>   Q  0.6645  11.14$  5.22$  1.46$
|377>   Q  0.6645  11.75$  3.81$  1.81$
|378>   Q  -1.3290  11.23$  4.37$  1.43$
|379>   Q  0.6645  3.33$  13.61$  15.71$
|380>   Q  0.6645  4.62$  14.59$  15.89$
|381>   Q  -1.3290  3.78$  14.36$  15.85$
|382>   Q  0.6645  8.91$  11.48$  17.6$
|383>   Q  0.6645  9.43$  11.64$  16.05$
|384>   Q  -1.3290  9.46$  11.7$  16.95$
|385>   Q  0.6645  15.38$  11.29$  4.4$
|386>   Q  0.6645  15.85$  12.32$  3.38$
|387>   Q  -1.3290  15.29$  11.84$  3.79$
|388>   Q  0.6645  7.93$  7.98$  20.44$
|389>   Q  0.6645  9.43$  8.26$  20.06$
|390>   Q  -1.3290  8.59$  8.32$  20.01$
|391>   Q  0.6645  4.96$  13.51$  17.75$
|392>   Q  0.6645  5.76$  14.43$  18.68$
|393>   Q  -1.3290  5.08$  14.01$  18.38$
|394>   Q  0.6645  2.5$  13.71$  8.99$
|395>   Q  0.6645  1.5$  12.81$  8.25$
|396>   Q  -1.3290  2.21$  12.97$  8.67$
|397>   Q  0.6645  7.68$  7.85$  6.86$
|398>   Q  0.6645  7.42$  8.95$  5.83$
|399>   Q  -1.3290  7.22$  8.26$  6.28$
|400>   Q  0.6645  16.49$  9.15$  18.63$
|401>   Q  0.6645  15.53$  8.4$  19.51$
|402>   Q  -1.3290  15.86$  9.09$  19.17$
|403>   Q  0.6645  14.61$  7.9$  1.9$
|404>   Q  0.6645  13.34$  7.22$  1.75$
|405>   Q  -1.3290  14.15$  7.31$  1.61$
|406>   Q  0.6645  21.47$  14.79$  9.46$
|407>   Q  0.6645  22.23$  13.61$  10.2$
|408>   Q  -1.3290  21.65$  13.97$  9.66$
|409>   Q  0.6645  16.13$  2.28$  9.93$
|410>   Q  0.6645  15.3$  2.97$  11.01$
|411>   Q  -1.3290  15.61$  2.3$  10.59$
|412>   Q  0.6645  5.74$  9.79$  2.54$
|413>   Q  0.6645  4.99$  11.12$  2.77$
|414>   Q  -1.3290  5.66$  10.63$  2.64$
|415>   Q  0.6645  14.75$  14.42$  18.21$
|416>   Q  0.6645  15.61$  15.72$  18.08$
|417>   Q  -1.3290  15.31$  15.02$  18.47$
|418>   Q  0.6645  15.2$  15.96$  5.76$
|419>   Q  0.6645  16.63$  15.84$  5.66$
|420>   Q  -1.3290  15.93$  15.92$  6.07$
|421>   Q  0.6645  9.54$  6.78$  6.2$
|422>   Q  0.6645  9.15$  5.5$  6.88$
|423>   Q  -1.3290  9.33$  6.3$  6.86$
|424>   Q  0.6645  3.74$  15.71$  4.58$
|425>   Q  0.6645  3.26$  17.07$  5.25$
|426>   Q  -1.3290  3.42$  16.22$  5.21$
|427>   Q  0.6645  12.84$  21.41$  10.82$
|428>   Q  0.6645  13.86$  22.52$  10.97$
|429>   Q  -1.3290  13.58$  21.7$  11.06$
|430>   Q  0.6645  15.91$  8.67$  12.51$
|431>   Q  0.6645  16.09$  7.3$  13.27$
|432>   Q  -1.3290  15.85$  8.13$  13.2$
|433>   Q  0.6645  3.94$  8.28$  4.35$
|434>   Q  0.6645  3.12$  9.28$  5.13$
|435>   Q  -1.3290  3.26$  8.73$  4.54$
|436>   Q  0.6645  13.21$  3.25$  3.78$
|437>   Q  0.6645  14.07$  3.93$  2.78$
|438>   Q  -1.3290  13.47$  3.89$  3.33$
|439>   Q  0.6645  8.94$  3.23$  16.76$
|440>   Q  0.6645  8.52$  4.65$  16.49$
|441>   Q  -1.3290  8.55$  3.84$  16.31$
|442>   Q  0.6645  11.34$  7.24$  0.36$
|443>   Q  0.6645  10.68$  7.68$  1.67$
|444>   Q  -1.3290  11.19$  7.21$  1.18$
|445>   Q  0.6645  10.07$  19.05$  12.01$
|446>   Q  0.6645  10$  17.97$  10.87$
|447>   Q  -1.3290  10.31$  18.65$  11.26$
|448>   Q  0.6645  3.02$  8.12$  12.68$
|449>   Q  0.6645  3.27$  7.64$  14.02$
|450>   Q  -1.3290  3.53$  7.93$  13.28$
|451>   Q  0.6645  4.14$  5.36$  9.74$
|452>   Q  0.6645  3.95$  6.92$  10.08$
|453>   Q  -1.3290  3.86$  6.07$  10.2$
|454>   Q  0.6645  13.64$  17.3$  16.19$
|455>   Q  0.6645  12.56$  16.76$  17.07$
|456>   Q  -1.3290  12.82$  17.21$  16.42$
|457>   Q  0.6645  9.89$  18.05$  16.97$
|458>   Q  0.6645  8.8$  17.09$  16.54$
|459>   Q  -1.3290  9.35$  17.43$  17.06$
|460>   Q  0.6645  1.7$  11.5$  12.71$
|461>   Q  0.6645  1.94$  9.93$  12.78$
|462>   Q  -1.3290  2.17$  10.79$  12.79$
|463>   Q  0.6645  11.11$  5.37$  5.45$
|464>   Q  0.6645  10.33$  4.04$  4.97$
|465>   Q  -1.3290  10.78$  4.54$  5.52$
|466>   Q  0.6645  17.22$  7.64$  5.51$
|467>   Q  0.6645  17.26$  8.36$  4.21$
|468>   Q  -1.3290  17.1$  7.71$  4.7$
|469>   Q  0.6645  2.56$  11.74$  14.49$
|470>   Q  0.6645  2.18$  11.91$  16$
|471>   Q  -1.3290  2.15$  12.08$  15.17$
|472>   Q  0.6645  10.87$  14.7$  21.62$
|473>   Q  0.6645  11.23$  13.8$  20.48$
|474>   Q  -1.3290  10.72$  14.26$  20.92$
|475>   Q  0.6645  5$  6.48$  3.84$
|476>   Q  0.6645  5.99$  6.98$  4.86$
|477>   Q  -1.3290  5.22$  6.9$  4.53$
|478>   Q  0.6645  10$  16.34$  13.7$
|479>   Q  0.6645  9.2$  15.77$  14.93$
|480>   Q  -1.3290  9.39$  15.88$  14.1$
|481>   Q  0.6645  5.49$  16.41$  8.18$
|482>   Q  0.6645  4.56$  16.23$  6.97$
|483>   Q  -1.3290  4.87$  16.61$  7.68$
|484>   Q  0.6645  15.87$  4.09$  15.04$
|485>   Q  0.6645  17.27$  3.56$  15.16$
|486>   Q  -1.3290  16.7$  4.16$  15.04$
|487>   Q  0.6645  13.5$  4.42$  8.28$
|488>   Q  0.6645  12.85$  5.9$  8.71$
|489>   Q  -1.3290  13.42$  5.18$  8.72$
|490>   Q  0.6645  12.44$  7.65$  20.36$
|491>   Q  0.6645  11.49$  8.47$  19.45$
|492>   Q  -1.3290  11.68$  7.9$  20.07$
|493>   Q  0.6645  19.25$  8.84$  9.03$
|494>   Q  0.6645  18.87$  10.37$  8.82$
|495>   Q  -1.3290  18.79$  9.56$  9.15$
|496>   Q  0.6645  6.55$  18.87$  13.31$
|497>   Q  0.6645  8.05$  18.79$  13.6$
|498>   Q  -1.3290  7.28$  18.47$  13.38$
|499>   Q  0.6645  17.36$  7.73$  16.92$
|500>   Q  0.6645  17.75$  8.95$  16.19$
|501>   Q  -1.3290  17.57$  8.53$  16.88$
|502>   Q  0.6645  4.67$  10.51$  17.71$
|503>   Q  0.6645  6.19$  10.6$  17.53$
|504>   Q  -1.3290  5.39$  10.41$  17.28$
|505>   Q  0.6645  17.81$  16.7$  9.55$
|506>   Q  0.6645  18.07$  17.72$  8.41$
|507>   Q  -1.3290  18.18$  17.01$  8.81$
|508>   Q  0.6645  13.88$  3.05$  6.81$
|509>   Q  0.6645  12.37$  3.66$  6.49$
|510>   Q  -1.3290  13.05$  3.28$  6.96$
|511>   Q  0.6645  21.38$  10.17$  13.08$
|512>   Q  0.6645  21.64$  10.41$  14.6$
|513>   Q  -1.3290  21.17$  10.26$  13.91$
|514>   Q  0.6645  9.08$  1.63$  13.94$
|515>   Q  0.6645  10.44$  2.22$  14.27$
|516>   Q  -1.3290  9.86$  1.6$  14.22$
|517>   Q  0.6645  4.64$  4.64$  1.71$
|518>   Q  0.6645  5.91$  4.97$  2.55$
|519>   Q  -1.3290  5.08$  4.96$  2.36$
|520>   Q  0.6645  5.1$  8.1$  17.34$
|521>   Q  0.6645  4.57$  6.62$  17.31$
|522>   Q  -1.3290  4.94$  7.31$  17.63$
|523>   Q  0.6645  2.08$  9.35$  9.27$
|524>   Q  0.6645  1.16$  9.68$  8.01$
|525>   Q  -1.3290  1.4$  9.67$  8.85$
|526>   Q  0.6645  14.87$  2.94$  16.87$
|527>   Q  0.6645  14.17$  4.31$  16.54$
|528>   Q  -1.3290  14.45$  3.51$  16.39$
|529>   Q  0.6645  7.32$  16.44$  5.12$
|530>   Q  0.6645  6.67$  15.15$  4.93$
|531>   Q  -1.3290  7.13$  15.79$  4.67$
|532>   Q  0.6645  7.85$  18.69$  10.3$
|533>   Q  0.6645  7.31$  19.76$  9.2$
|534>   Q  -1.3290  7.54$  19.45$  10.01$
|535>   Q  0.6645  20.55$  6.56$  13.5$
|536>   Q  0.6645  21.82$  5.83$  12.92$
|537>   Q  -1.3290  21.07$  6.25$  12.87$
|538>   Q  0.6645  4.8$  19.94$  7.57$
|539>   Q  0.6645  4.11$  18.56$  7.66$
|540>   Q  -1.3290  4.17$  19.37$  7.49$
|541>   Q  0.6645  8.91$  2.44$  3.53$
|542>   Q  0.6645  9.67$  3.55$  2.76$
|543>   Q  -1.3290  9.22$  3.24$  3.39$
|544>   Q  0.6645  12.03$  7.66$  16$
|545>   Q  0.6645  10.53$  7.94$  15.59$
|546>   Q  -1.3290  11.27$  7.51$  15.59$
|547>   Q  0.6645  5.62$  11.68$  13.76$
|548>   Q  0.6645  4.94$  12.75$  12.8$
|549>   Q  -1.3290  5.52$  12.43$  13.33$
|550>   Q  0.6645  12.26$  1.59$  6.44$
|551>   Q  0.6645  11.18$  0.57$  6.23$
|552>   Q  -1.3290  11.84$  1$  6$
|553>   Q  0.6645  6.98$  6.82$  17.54$
|554>   Q  0.6645  8.29$  7.17$  16.88$
|555>   Q  -1.3290  7.76$  6.65$  17.28$
|556>   Q  0.6645  13.04$  6.03$  17.81$
|557>   Q  0.6645  14.39$  6.44$  17.17$
|558>   Q  -1.3290  13.62$  6.13$  17.19$
|559>   Q  0.6645  5.57$  13.21$  5.06$
|560>   Q  0.6645  6.97$  12.93$  5.61$
|561>   Q  -1.3290  6.19$  13.22$  5.64$
|562>   Q  0.6645  9.2$  20.85$  13.32$
|563>   Q  0.6645  9.87$  19.75$  14.29$
|564>   Q  -1.3290  9.5$  20.09$  13.57$
|565>   Q  0.6645  17.55$  14.95$  15.72$
|566>   Q  0.6645  18.4$  15.4$  14.62$
|567>   Q  -1.3290  17.68$  15.16$  14.93$
|568>   Q  0.6645  19.45$  5.71$  11.84$
|569>   Q  0.6645  17.9$  5.76$  11.92$
|570>   Q  -1.3290  18.67$  5.81$  11.52$
|571>   Q  0.6645  12.37$  14.69$  18.39$
|572>   Q  0.6645  11$  15.19$  17.76$
|573>   Q  -1.3290  11.73$  15.27$  18.24$
|574>   Q  0.6645  4.48$  15.84$  12.23$
|575>   Q  0.6645  5.83$  15.47$  11.79$
|576>   Q  -1.3290  5.07$  15.75$  11.67$
|577>   Q  0.6645  3.03$  18.52$  10.41$
|578>   Q  0.6645  1.54$  19.02$  10.32$
|579>   Q  -1.3290  2.19$  18.46$  10.2$
|580>   Q  0.6645  12.76$  15.04$  10.22$
|581>   Q  0.6645  12.35$  15.03$  11.71$
|582>   Q  -1.3290  12.26$  15.18$  10.89$
|583>   Q  0.6645  12.22$  18.2$  7.14$
|584>   Q  0.6645  12.37$  19.4$  5.92$
|585>   Q  -1.3290  12.42$  19$  6.74$
|586>   Q  0.6645  19.46$  6.54$  9.55$
|587>   Q  0.6645  19.38$  6.65$  8.03$
|588>   Q  -1.3290  19.58$  6.9$  8.82$
|589>   Q  0.6645  10.08$  0.71$  11.54$
|590>   Q  0.6645  11$  1.21$  10.3$
|591>   Q  -1.3290  10.83$  0.91$  11.1$
|592>   Q  0.6645  6.79$  13.58$  1.47$
|593>   Q  0.6645  6.08$  12.19$  1.51$
|594>   Q  -1.3290  6.24$  12.99$  1.23$
|595>   Q  0.6645  9.1$  14.63$  17.47$
|596>   Q  0.6645  9.93$  13.63$  16.71$
|597>   Q  -1.3290  9.51$  14.36$  16.79$
|598>   Q  0.6645  7.98$  17.15$  11.77$
|599>   Q  0.6645  8.19$  16$  10.92$
|600>   Q  -1.3290  8.18$  16.81$  11.06$
|601>   Q  0.6645  15$  5.6$  7.88$
|602>   Q  0.6645  15.69$  5.39$  6.55$
|603>   Q  -1.3290  15.65$  5.67$  7.34$
|604>   Q  0.6645  3.74$  10.87$  11.78$
|605>   Q  0.6645  3.73$  11.53$  10.51$
|606>   Q  -1.3290  4.11$  11.16$  11.13$
|607>   Q  0.6645  4.16$  9.04$  8.86$
|608>   Q  0.6645  4.18$  9.36$  10.43$
|609>   Q  -1.3290  3.97$  8.91$  9.72$
|610>   Q  0.6645  10.98$  10.62$  17.46$
|611>   Q  0.6645  12.45$  10.15$  17.32$
|612>   Q  -1.3290  11.69$  10.22$  17.69$
|613>   Q  0.6645  7.26$  10.27$  4.17$
|614>   Q  0.6645  8.65$  10.73$  4.71$
|615>   Q  -1.3290  8$  10.2$  4.56$
|616>   Q  0.6645  17.07$  14.5$  7.35$
|617>   Q  0.6645  17.42$  13.35$  8.23$
|618>   Q  -1.3290  17.3$  13.7$  7.51$
|619>   Q  0.6645  21.56$  9.3$  16.93$
|620>   Q  0.6645  20.79$  10.7$  16.8$
|621>   Q  -1.3290  21.41$  10.16$  17.04$
|622>   Q  0.6645  14.47$  6.98$  21.25$
|623>   Q  0.6645  14.89$  6.04$  19.95$
|624>   Q  -1.3290  14.58$  6.72$  20.41$
|625>   Q  0.6645  9.6$  9.59$  1.3$
|626>   Q  0.6645  9.13$  9.43$  2.77$
|627>   Q  -1.3290  9.34$  9.17$  1.99$
|628>   Q  0.6645  4.98$  8.96$  14.28$
|629>   Q  0.6645  5.41$  9.82$  15.46$
|630>   Q  -1.3290  5.41$  9.58$  14.64$
|631>   Q  0.6645  10.74$  18.15$  1.93$
|632>   Q  0.6645  11.24$  17.94$  3.4$
|633>   Q  -1.3290  11.29$  18.18$  2.57$
|634>   Q  0.6645  5.25$  17.66$  10.82$
|635>   Q  0.6645  5.61$  19.14$  10.49$
|636>   Q  -1.3290  5.07$  18.5$  10.75$
|637>   Q  0.6645  9.33$  17.86$  4.4$
|638>   Q  0.6645  10.04$  17.65$  5.65$
|639>   Q  -1.3290  9.92$  17.52$  4.85$
|640> *
|641> 
|642>                          ****END OF INPUT****
================================================================================

                     *******************************
                     * Energy+Gradient Calculation *
                     *******************************

---------------------------------
CARTESIAN COORDINATES (ANGSTROEM)
---------------------------------
  C     12.060000   11.060000   12.320000
  H     13.070000   11.450000   12.520000
  H     12.160000    9.960000   12.490000
  C     11.580000   11.250000   10.920000
  H     11.260000   12.320000   10.770000
  H     12.460000   11.020000   10.330000
  C     10.460000   10.230000   10.570000
  H      9.640000   10.220000   11.240000
  H     10.910000    9.230000   10.700000
  C      9.880000   10.340000    9.180000
  H      8.950000    9.740000    9.020000
  H     10.640000    9.940000    8.420000
  O      9.540000   11.690000    8.930000
  H      8.700000   11.820000    9.440000
  O     11.140000   11.560000   13.270000
  H     11.320000   12.530000   13.350000
  O     10.710000    6.910000   11.460000
  H     11.600000    6.990000   11.780000
  H     10.070000    7.260000   12.100000
  O     15.420000   12.180000   11.220000
  H     15.520000   11.220000   11.380000
  H     16.300000   12.520000   10.890000
  O     14.330000   12.400000    8.460000
  H     14.900000   12.120000    7.720000
  H     14.790000   12.140000    9.260000
  O     12.460000   13.930000   14.710000
  H     12.130000   14.800000   14.500000
  H     13.320000   13.840000   14.330000
  O      7.220000   12.250000   10.270000
  H      6.390000   12.110000    9.790000
  H      7.210000   13.120000   10.620000
  O     15.310000   10.470000   14.850000
  H     15.280000    9.570000   14.430000
  H     15.150000   11.060000   14.140000
  O     13.550000    8.830000    8.280000
  H     14.110000    8.930000    7.490000
  H     12.790000    8.320000    8.030000
  O     10.240000    5.320000   13.810000
  H     10.550000    5.950000   14.520000
  H      9.610000    5.980000   13.430000
  O      9.910000   14.630000    9.260000
  H     10.590000   14.870000    9.910000
  H     10.060000   13.680000    8.980000
  O      7.580000   14.480000   12.180000
  H      8.210000   14.970000   12.750000
  H      7.230000   13.800000   12.790000
  O      8.860000   11.180000   14.550000
  H      8.330000   11.090000   13.730000
  H      9.750000   11.060000   14.130000
  O     14.840000    8.960000   10.910000
  H     14.550000    8.930000    9.950000
  H     14.190000    8.330000   11.240000
  O     11.850000   11.550000    5.960000
  H     12.550000   11.590000    6.530000
  H     11.130000   11.760000    6.570000
  O     17.490000   13.530000   10.210000
  H     17.230000   14.410000   10.520000
  H     18.410000   13.360000   10.480000
  O     13.370000    7.110000   12.310000
  H     13.580000    7.280000   13.240000
  H     13.750000    6.240000   12.180000
  O     11.430000    7.120000    8.520000
  H     11.000000    7.180000    9.370000
  H     10.710000    6.750000    7.960000
  O     17.490000   10.100000   11.810000
  H     17.900000    9.690000   10.930000
  H     18.150000   10.790000   11.980000
  O     15.090000   13.650000   13.670000
  H     15.220000   13.340000   12.760000
  H     15.660000   14.410000   13.810000
  O      9.160000   12.330000    6.130000
  H      9.400000   13.270000    5.850000
  H      9.010000   12.320000    7.080000
  O     15.920000   11.160000    6.370000
  H     16.500000   11.910000    6.250000
  H     16.390000   10.490000    6.880000
  O     13.860000   14.990000    8.660000
  H     14.600000   15.430000    8.190000
  H     14.120000   14.060000    8.560000
  O     13.540000   13.420000   17.460000
  H     13.870000   12.500000   17.520000
  H     13.110000   13.430000   16.610000
  O      7.270000   10.070000   12.070000
  H      6.440000    9.940000   12.520000
  H      7.170000   10.660000   11.380000
  O      9.660000    4.160000   11.080000
  H     10.340000    4.880000   11.220000
  H     10.130000    3.600000   10.500000
  O      8.430000    7.610000   12.920000
  H      7.560000    7.170000   12.890000
  H      8.420000    8.440000   12.480000
  O      5.130000   12.150000    8.070000
  H      4.270000   12.460000    8.350000
  H      5.350000   12.550000    7.220000
  O     11.980000   16.670000   13.630000
  H     11.970000   17.210000   14.450000
  H     12.690000   16.970000   13.040000
  Q     11.920000   11.480000   19.060000
  Q     12.680000   12.170000   20.150000
  Q     11.980000   11.890000   19.740000
  Q     16.840000    5.050000    8.570000
  Q     17.700000    5.090000    9.940000
  Q     17.290000    4.730000    9.250000
  Q      5.890000    3.350000   14.650000
  Q      6.800000    3.450000   15.810000
  Q      6.050000    3.330000   15.460000
  Q     19.640000   12.380000    5.260000
  Q     18.920000   13.370000    6.170000
  Q     19.450000   13.160000    5.570000
  Q      8.600000    5.610000   18.900000
  Q      8.150000    5.210000   20.350000
  Q      8.400000    5.100000   19.560000
  Q     11.220000    5.870000   19.070000
  Q     11.820000    4.500000   19.370000
  Q     11.740000    5.240000   18.960000
  Q      7.150000   16.910000   14.700000
  Q      6.990000   15.640000   15.520000
  Q      7.060000   16.490000   15.420000
  Q     10.100000   15.910000   20.020000
  Q      9.820000   16.880000   18.890000
  Q      9.720000   16.570000   19.670000
  Q     18.560000    8.720000   19.030000
  Q     19.580000    9.450000   19.690000
  Q     19.000000    8.880000   19.670000
  Q      7.080000   12.860000   21.290000
  Q      8.630000   13.040000   20.930000
  Q      7.760000   12.940000   20.750000
  Q     18.460000   13.590000   17.580000
  Q     17.240000   14.320000   18.200000
  Q     17.950000   14.240000   17.750000
  Q      6.220000   13.150000   14.990000
  Q      7.320000   13.480000   15.900000
  Q      6.570000   13.580000   15.640000
  Q      4.540000   10.490000    7.040000
  Q      5.340000    9.110000    6.710000
  Q      4.660000    9.610000    7.010000
  Q     16.780000   18.330000   13.950000
  Q     18.120000   18.960000   13.550000
  Q     17.580000   18.610000   14.080000
  Q     15.840000   18.650000   11.640000
  Q     14.450000   18.480000   12.300000
  Q     15.280000   18.350000   12.240000
  Q      3.450000   15.560000   10.360000
  Q      2.090000   16.040000   10.230000
  Q      2.700000   15.510000   10.080000
  Q     20.290000   16.300000   12.710000
  Q     19.730000   14.800000   12.650000
  Q     19.870000   15.610000   12.970000
  Q      0.800000   10.120000    5.820000
  Q      0.020000    8.890000    6.010000
  Q      0.600000    9.410000    6.230000
  Q     11.320000    2.450000   17.250000
  Q     10.930000    3.930000   17.760000
  Q     10.820000    3.060000   17.640000
  Q      0.660000    6.160000   10.420000
  Q      2.080000    5.670000   10.680000
  Q      1.250000    5.610000   10.500000
  Q     18.970000    7.680000   14.980000
  Q     19.040000    6.200000   15.100000
  Q     19.350000    6.980000   14.910000
  Q      8.150000    2.710000    7.070000
  Q      7.960000    2.020000    8.510000
  Q      8.390000    2.260000    7.780000
  Q      9.120000   10.320000   21.090000
  Q     10.540000   10.820000   20.820000
  Q      9.890000   10.650000   21.310000
  Q      1.780000   14.220000   12.370000
  Q      0.420000   13.720000   12.630000
  Q      1.170000   13.680000   12.270000
  Q     14.270000   19.040000    7.150000
  Q     15.160000   18.240000    6.140000
  Q     14.990000   18.780000    6.780000
  Q     12.200000   15.770000    1.320000
  Q     11.740000   14.860000    2.470000
  Q     11.710000   15.210000    1.670000
  Q      7.370000    8.540000    1.710000
  Q      6.010000    8.150000    1.210000
  Q      6.620000    8.170000    1.740000
  Q     10.530000   16.590000    7.970000
  Q     11.910000   15.890000    8.090000
  Q     11.360000   16.510000    7.830000
  Q     13.450000    2.060000   15.760000
  Q     12.620000    0.880000   15.100000
  Q     12.920000    1.390000   15.730000
  Q     19.490000   12.380000   12.970000
  Q     20.320000   11.990000   11.720000
  Q     19.880000   12.520000   12.240000
  Q      8.280000    5.200000    3.020000
  Q      7.510000    6.580000    2.880000
  Q      7.770000    5.780000    2.670000
  Q     12.110000   18.850000   11.720000
  Q     13.080000   19.890000   12.300000
  Q     12.840000   19.140000   12.050000
  Q     13.810000   10.220000    1.200000
  Q     14.060000   10.740000    2.500000
  Q     13.580000   10.370000    1.980000
  Q      7.040000    3.440000    4.940000
  Q      6.580000    4.130000    6.220000
  Q      7.110000    3.710000    5.720000
  Q     11.630000    3.110000    8.570000
  Q     10.120000    2.750000    8.560000
  Q     10.890000    2.800000    8.890000
  Q      2.090000   12.780000    6.220000
  Q      2.890000   12.490000    4.880000
  Q      2.530000   12.310000    5.630000
  Q     20.480000   10.660000   10.110000
  Q     21.980000   10.680000   10.290000
  Q     21.210000   10.730000   10.550000
  Q      6.970000   14.770000    7.460000
  Q      8.150000   14.740000    8.480000
  Q      7.420000   14.980000    8.130000
  Q      8.070000   17.120000    8.100000
  Q      9.090000   18.380000    8.080000
  Q      8.630000   17.710000    7.760000
  Q     16.250000   16.490000   15.620000
  Q     16.260000   17.290000   16.920000
  Q     15.880000   16.890000   16.280000
  Q      3.650000    7.640000    7.440000
  Q      4.010000    7.050000    6.160000
  Q      3.660000    7.000000    6.920000
  Q      2.900000   12.160000    2.310000
  Q      3.880000   13.290000    2.700000
  Q      3.480000   12.540000    2.820000
  Q     11.810000   18.830000   15.920000
  Q     10.750000   20.000000   16.040000
  Q     11.240000   19.420000   15.650000
  Q      6.400000    5.210000    8.300000
  Q      5.090000    5.370000    7.550000
  Q      5.810000    5.000000    7.750000
  Q     12.000000   10.060000    3.280000
  Q     11.340000   10.580000    4.660000
  Q     11.400000   10.150000    3.940000
  Q     14.960000   10.330000   18.000000
  Q     14.640000   10.670000   16.450000
  Q     14.510000   10.660000   17.290000
  Q      6.460000    5.750000   10.900000
  Q      7.770000    5.100000   10.440000
  Q      7.000000    5.420000   10.350000
  Q     12.610000    6.900000    4.620000
  Q     11.570000    8.030000    4.640000
  Q     11.860000    7.270000    4.770000
  Q     13.140000   15.560000    4.680000
  Q     14.220000   16.300000    3.960000
  Q     13.590000   16.210000    4.500000
  Q     16.760000    4.960000   13.220000
  Q     15.570000    5.290000   12.290000
  Q     16.300000    5.440000   12.700000
  Q     11.960000   20.790000   14.110000
  Q     11.960000   22.000000   13.060000
  Q     12.270000   21.480000   13.670000
  Q     19.970000   11.830000    7.400000
  Q     20.480000   12.340000    8.730000
  Q     19.920000   11.960000    8.200000
  Q      7.190000    1.090000   10.470000
  Q      5.980000    1.910000   10.170000
  Q      6.680000    1.490000    9.970000
  Q     18.040000   16.410000   12.210000
  Q     16.780000   16.780000   11.480000
  Q     17.490000   16.350000   11.550000
  Q     11.370000    4.100000   13.260000
  Q     11.470000    2.780000   12.420000
  Q     11.780000    3.430000   12.900000
  Q     17.500000   12.860000   14.190000
  Q     17.640000   11.360000   14.310000
  Q     17.940000   12.140000   14.270000
  Q     10.940000   12.120000    2.300000
  Q     10.270000   12.170000    1.020000
  Q     10.380000   12.390000    1.810000
  Q     11.790000   18.260000   20.130000
  Q     12.090000   16.700000   19.760000
  Q     12.240000   17.500000   20.060000
  Q     15.000000    4.900000    4.160000
  Q     16.040000    5.960000    4.540000
  Q     15.630000    5.230000    4.620000
  Q     16.030000   20.930000   15.070000
  Q     16.620000   19.430000   15.500000
  Q     16.250000   20.240000   15.580000
  Q      1.100000    5.200000    6.290000
  Q      1.250000    6.640000    6.070000
  Q      0.820000    5.960000    6.120000
  Q      8.970000   14.100000    2.400000
  Q      8.030000   15.280000    2.940000
  Q      8.320000   14.670000    2.390000
  Q      7.540000   14.230000   19.390000
  Q      8.060000   15.600000   19.190000
  Q      7.650000   14.910000   18.960000
  Q      5.990000   18.160000    6.290000
  Q      7.550000   18.410000    6.300000
  Q      6.730000   18.470000    5.990000
  Q      1.690000    4.660000    8.720000
  Q      2.500000    5.120000    7.640000
  Q      2.190000    4.520000    8.090000
  Q      5.180000    6.780000   12.640000
  Q      5.740000    5.480000   12.920000
  Q      5.800000    6.270000   12.780000
  Q     19.160000    9.840000   14.350000
  Q     17.790000    9.160000   13.720000
  Q     18.380000    9.420000   14.320000
  Q      2.100000   16.480000   13.060000
  Q      2.830000   15.570000   13.960000
  Q      2.630000   15.830000   13.230000
  Q      8.420000    9.470000   15.560000
  Q      8.390000    8.090000   14.740000
  Q      8.530000    8.630000   15.410000
  Q      3.430000   15.600000    2.320000
  Q      4.960000   15.620000    2.390000
  Q      4.180000   15.320000    2.570000
  Q     12.010000   13.490000    4.420000
  Q     13.440000   13.150000    3.870000
  Q     12.730000   13.570000    3.920000
  Q      8.060000    9.870000   19.020000
  Q      7.790000   11.480000   19.370000
  Q      7.870000   10.740000   18.910000
  Q      5.450000   17.510000   15.930000
  Q      3.790000   17.380000   16.230000
  Q      4.570000   17.730000   16.040000
  Q     19.180000   12.280000   16.140000
  Q     20.430000   12.990000   16.500000
  Q     19.830000   12.420000   16.610000
  Q      0.540000    7.780000   12.330000
  Q      0.810000    8.670000   11.080000
  Q      1.000000    8.290000   11.810000
  Q     10.520000   15.410000    5.040000
  Q      9.110000   15.020000    4.830000
  Q      9.880000   14.880000    4.990000
  Q     13.580000   13.140000    0.850000
  Q     14.300000   13.850000   -0.220000
  Q     14.020000   13.160000    0.140000
  Q     16.070000    7.920000    7.820000
  Q     17.260000    8.580000    8.320000
  Q     16.630000    8.480000    7.810000
  Q      8.560000    3.960000   14.000000
  Q      8.790000    3.740000   12.520000
  Q      8.350000    3.700000   13.230000
  Q      5.140000    3.520000   11.650000
  Q      6.480000    3.550000   12.430000
  Q      5.640000    3.570000   12.360000
  Q     11.290000   19.490000    8.470000
  Q     10.270000   19.670000    9.610000
  Q     10.560000   19.720000    8.820000
  Q      4.900000    3.340000    9.010000
  Q      3.710000    2.940000    9.860000
  Q      4.510000    3.160000    9.720000
  Q     16.610000    5.540000   16.310000
  Q     16.370000    5.880000   17.870000
  Q     16.410000    6.020000   17.030000
  Q     13.790000    4.740000   10.630000
  Q     13.190000    3.970000   11.910000
  Q     13.760000    4.390000   11.420000
  Q     11.140000    5.220000    1.460000
  Q     11.750000    3.810000    1.810000
  Q     11.230000    4.370000    1.430000
  Q      3.330000   13.610000   15.710000
  Q      4.620000   14.590000   15.890000
  Q      3.780000   14.360000   15.850000
  Q      8.910000   11.480000   17.600000
  Q      9.430000   11.640000   16.050000
  Q      9.460000   11.700000   16.950000
  Q     15.380000   11.290000    4.400000
  Q     15.850000   12.320000    3.380000
  Q     15.290000   11.840000    3.790000
  Q      7.930000    7.980000   20.440000
  Q      9.430000    8.260000   20.060000
  Q      8.590000    8.320000   20.010000
  Q      4.960000   13.510000   17.750000
  Q      5.760000   14.430000   18.680000
  Q      5.080000   14.010000   18.380000
  Q      2.500000   13.710000    8.990000
  Q      1.500000   12.810000    8.250000
  Q      2.210000   12.970000    8.670000
  Q      7.680000    7.850000    6.860000
  Q      7.420000    8.950000    5.830000
  Q      7.220000    8.260000    6.280000
  Q     16.490000    9.150000   18.630000
  Q     15.530000    8.400000   19.510000
  Q     15.860000    9.090000   19.170000
  Q     14.610000    7.900000    1.900000
  Q     13.340000    7.220000    1.750000
  Q     14.150000    7.310000    1.610000
  Q     21.470000   14.790000    9.460000
  Q     22.230000   13.610000   10.200000
  Q     21.650000   13.970000    9.660000
  Q     16.130000    2.280000    9.930000
  Q     15.300000    2.970000   11.010000
  Q     15.610000    2.300000   10.590000
  Q      5.740000    9.790000    2.540000
  Q      4.990000   11.120000    2.770000
  Q      5.660000   10.630000    2.640000
  Q     14.750000   14.420000   18.210000
  Q     15.610000   15.720000   18.080000
  Q     15.310000   15.020000   18.470000
  Q     15.200000   15.960000    5.760000
  Q     16.630000   15.840000    5.660000
  Q     15.930000   15.920000    6.070000
  Q      9.540000    6.780000    6.200000
  Q      9.150000    5.500000    6.880000
  Q      9.330000    6.300000    6.860000
  Q      3.740000   15.710000    4.580000
  Q      3.260000   17.070000    5.250000
  Q      3.420000   16.220000    5.210000
  Q     12.840000   21.410000   10.820000
  Q     13.860000   22.520000   10.970000
  Q     13.580000   21.700000   11.060000
  Q     15.910000    8.670000   12.510000
  Q     16.090000    7.300000   13.270000
  Q     15.850000    8.130000   13.200000
  Q      3.940000    8.280000    4.350000
  Q      3.120000    9.280000    5.130000
  Q      3.260000    8.730000    4.540000
  Q     13.210000    3.250000    3.780000
  Q     14.070000    3.930000    2.780000
  Q     13.470000    3.890000    3.330000
  Q      8.940000    3.230000   16.760000
  Q      8.520000    4.650000   16.490000
  Q      8.550000    3.840000   16.310000
  Q     11.340000    7.240000    0.360000
  Q     10.680000    7.680000    1.670000
  Q     11.190000    7.210000    1.180000
  Q     10.070000   19.050000   12.010000
  Q     10.000000   17.970000   10.870000
  Q     10.310000   18.650000   11.260000
  Q      3.020000    8.120000   12.680000
  Q      3.270000    7.640000   14.020000
  Q      3.530000    7.930000   13.280000
  Q      4.140000    5.360000    9.740000
  Q      3.950000    6.920000   10.080000
  Q      3.860000    6.070000   10.200000
  Q     13.640000   17.300000   16.190000
  Q     12.560000   16.760000   17.070000
  Q     12.820000   17.210000   16.420000
  Q      9.890000   18.050000   16.970000
  Q      8.800000   17.090000   16.540000
  Q      9.350000   17.430000   17.060000
  Q      1.700000   11.500000   12.710000
  Q      1.940000    9.930000   12.780000
  Q      2.170000   10.790000   12.790000
  Q     11.110000    5.370000    5.450000
  Q     10.330000    4.040000    4.970000
  Q     10.780000    4.540000    5.520000
  Q     17.220000    7.640000    5.510000
  Q     17.260000    8.360000    4.210000
  Q     17.100000    7.710000    4.700000
  Q      2.560000   11.740000   14.490000
  Q      2.180000   11.910000   16.000000
  Q      2.150000   12.080000   15.170000
  Q     10.870000   14.700000   21.620000
  Q     11.230000   13.800000   20.480000
  Q     10.720000   14.260000   20.920000
  Q      5.000000    6.480000    3.840000
  Q      5.990000    6.980000    4.860000
  Q      5.220000    6.900000    4.530000
  Q     10.000000   16.340000   13.700000
  Q      9.200000   15.770000   14.930000
  Q      9.390000   15.880000   14.100000
  Q      5.490000   16.410000    8.180000
  Q      4.560000   16.230000    6.970000
  Q      4.870000   16.610000    7.680000
  Q     15.870000    4.090000   15.040000
  Q     17.270000    3.560000   15.160000
  Q     16.700000    4.160000   15.040000
  Q     13.500000    4.420000    8.280000
  Q     12.850000    5.900000    8.710000
  Q     13.420000    5.180000    8.720000
  Q     12.440000    7.650000   20.360000
  Q     11.490000    8.470000   19.450000
  Q     11.680000    7.900000   20.070000
  Q     19.250000    8.840000    9.030000
  Q     18.870000   10.370000    8.820000
  Q     18.790000    9.560000    9.150000
  Q      6.550000   18.870000   13.310000
  Q      8.050000   18.790000   13.600000
  Q      7.280000   18.470000   13.380000
  Q     17.360000    7.730000   16.920000
  Q     17.750000    8.950000   16.190000
  Q     17.570000    8.530000   16.880000
  Q      4.670000   10.510000   17.710000
  Q      6.190000   10.600000   17.530000
  Q      5.390000   10.410000   17.280000
  Q     17.810000   16.700000    9.550000
  Q     18.070000   17.720000    8.410000
  Q     18.180000   17.010000    8.810000
  Q     13.880000    3.050000    6.810000
  Q     12.370000    3.660000    6.490000
  Q     13.050000    3.280000    6.960000
  Q     21.380000   10.170000   13.080000
  Q     21.640000   10.410000   14.600000
  Q     21.170000   10.260000   13.910000
  Q      9.080000    1.630000   13.940000
  Q     10.440000    2.220000   14.270000
  Q      9.860000    1.600000   14.220000
  Q      4.640000    4.640000    1.710000
  Q      5.910000    4.970000    2.550000
  Q      5.080000    4.960000    2.360000
  Q      5.100000    8.100000   17.340000
  Q      4.570000    6.620000   17.310000
  Q      4.940000    7.310000   17.630000
  Q      2.080000    9.350000    9.270000
  Q      1.160000    9.680000    8.010000
  Q      1.400000    9.670000    8.850000
  Q     14.870000    2.940000   16.870000
  Q     14.170000    4.310000   16.540000
  Q     14.450000    3.510000   16.390000
  Q      7.320000   16.440000    5.120000
  Q      6.670000   15.150000    4.930000
  Q      7.130000   15.790000    4.670000
  Q      7.850000   18.690000   10.300000
  Q      7.310000   19.760000    9.200000
  Q      7.540000   19.450000   10.010000
  Q     20.550000    6.560000   13.500000
  Q     21.820000    5.830000   12.920000
  Q     21.070000    6.250000   12.870000
  Q      4.800000   19.940000    7.570000
  Q      4.110000   18.560000    7.660000
  Q      4.170000   19.370000    7.490000
  Q      8.910000    2.440000    3.530000
  Q      9.670000    3.550000    2.760000
  Q      9.220000    3.240000    3.390000
  Q     12.030000    7.660000   16.000000
  Q     10.530000    7.940000   15.590000
  Q     11.270000    7.510000   15.590000
  Q      5.620000   11.680000   13.760000
  Q      4.940000   12.750000   12.800000
  Q      5.520000   12.430000   13.330000
  Q     12.260000    1.590000    6.440000
  Q     11.180000    0.570000    6.230000
  Q     11.840000    1.000000    6.000000
  Q      6.980000    6.820000   17.540000
  Q      8.290000    7.170000   16.880000
  Q      7.760000    6.650000   17.280000
  Q     13.040000    6.030000   17.810000
  Q     14.390000    6.440000   17.170000
  Q     13.620000    6.130000   17.190000
  Q      5.570000   13.210000    5.060000
  Q      6.970000   12.930000    5.610000
  Q      6.190000   13.220000    5.640000
  Q      9.200000   20.850000   13.320000
  Q      9.870000   19.750000   14.290000
  Q      9.500000   20.090000   13.570000
  Q     17.550000   14.950000   15.720000
  Q     18.400000   15.400000   14.620000
  Q     17.680000   15.160000   14.930000
  Q     19.450000    5.710000   11.840000
  Q     17.900000    5.760000   11.920000
  Q     18.670000    5.810000   11.520000
  Q     12.370000   14.690000   18.390000
  Q     11.000000   15.190000   17.760000
  Q     11.730000   15.270000   18.240000
  Q      4.480000   15.840000   12.230000
  Q      5.830000   15.470000   11.790000
  Q      5.070000   15.750000   11.670000
  Q      3.030000   18.520000   10.410000
  Q      1.540000   19.020000   10.320000
  Q      2.190000   18.460000   10.200000
  Q     12.760000   15.040000   10.220000
  Q     12.350000   15.030000   11.710000
  Q     12.260000   15.180000   10.890000
  Q     12.220000   18.200000    7.140000
  Q     12.370000   19.400000    5.920000
  Q     12.420000   19.000000    6.740000
  Q     19.460000    6.540000    9.550000
  Q     19.380000    6.650000    8.030000
  Q     19.580000    6.900000    8.820000
  Q     10.080000    0.710000   11.540000
  Q     11.000000    1.210000   10.300000
  Q     10.830000    0.910000   11.100000
  Q      6.790000   13.580000    1.470000
  Q      6.080000   12.190000    1.510000
  Q      6.240000   12.990000    1.230000
  Q      9.100000   14.630000   17.470000
  Q      9.930000   13.630000   16.710000
  Q      9.510000   14.360000   16.790000
  Q      7.980000   17.150000   11.770000
  Q      8.190000   16.000000   10.920000
  Q      8.180000   16.810000   11.060000
  Q     15.000000    5.600000    7.880000
  Q     15.690000    5.390000    6.550000
  Q     15.650000    5.670000    7.340000
  Q      3.740000   10.870000   11.780000
  Q      3.730000   11.530000   10.510000
  Q      4.110000   11.160000   11.130000
  Q      4.160000    9.040000    8.860000
  Q      4.180000    9.360000   10.430000
  Q      3.970000    8.910000    9.720000
  Q     10.980000   10.620000   17.460000
  Q     12.450000   10.150000   17.320000
  Q     11.690000   10.220000   17.690000
  Q      7.260000   10.270000    4.170000
  Q      8.650000   10.730000    4.710000
  Q      8.000000   10.200000    4.560000
  Q     17.070000   14.500000    7.350000
  Q     17.420000   13.350000    8.230000
  Q     17.300000   13.700000    7.510000
  Q     21.560000    9.300000   16.930000
  Q     20.790000   10.700000   16.800000
  Q     21.410000   10.160000   17.040000
  Q     14.470000    6.980000   21.250000
  Q     14.890000    6.040000   19.950000
  Q     14.580000    6.720000   20.410000
  Q      9.600000    9.590000    1.300000
  Q      9.130000    9.430000    2.770000
  Q      9.340000    9.170000    1.990000
  Q      4.980000    8.960000   14.280000
  Q      5.410000    9.820000   15.460000
  Q      5.410000    9.580000   14.640000
  Q     10.740000   18.150000    1.930000
  Q     11.240000   17.940000    3.400000
  Q     11.290000   18.180000    2.570000
  Q      5.250000   17.660000   10.820000
  Q      5.610000   19.140000   10.490000
  Q      5.070000   18.500000   10.750000
  Q      9.330000   17.860000    4.400000
  Q     10.040000   17.650000    5.650000
  Q      9.920000   17.520000    4.850000

----------------------------
CARTESIAN COORDINATES (A.U.)
----------------------------
  NO LB      ZA    FRAG     MASS         X           Y           Z
   0 C     6.0000    0    12.011   22.790097   20.900371   23.281426
   1 H     1.0000    0     1.008   24.698721   21.637364   23.659371
   2 H     1.0000    0     1.008   22.979070   18.821672   23.602679
   3 C     6.0000    0    12.011   21.883029   21.259419   20.635809
   4 H     1.0000    0     1.008   21.278316   23.281426   20.352350
   5 H     1.0000    0     1.008   23.545988   20.824782   19.520871
   6 C     6.0000    0    12.011   19.766535   19.331898   19.974405
   7 H     1.0000    0     1.008   18.216960   19.313001   21.240522
   8 H     1.0000    0     1.008   20.616912   17.442172   20.220070
   9 C     6.0000    0    12.011   18.670494   19.539768   17.347686
  10 H     1.0000    0     1.008   16.913049   18.405933   17.045330
  11 H     1.0000    0     1.008   20.106686   18.783878   15.911494
  12 O     8.0000    0    15.999   18.027987   22.090899   16.875254
  13 H     1.0000    0     1.008   16.440617   22.336563   17.839015
  14 O     8.0000    0    15.999   21.051549   21.845234   25.076666
  15 H     1.0000    0     1.008   21.391700   23.678268   25.227844
  16 O     8.0000    0    15.999   20.238967   13.058008   21.656261
  17 H     1.0000    0     1.008   21.920823   13.209186   22.260974
  18 H     1.0000    0     1.008   19.029542   13.719412   22.865686
  19 O     8.0000    0    15.999   29.139577   23.016864   21.202727
  20 H     1.0000    0     1.008   29.328550   21.202727   21.505083
  21 H     1.0000    0     1.008   30.802536   23.659371   20.579118
  22 O     8.0000    0    15.999   27.079775   23.432604   15.987083
  23 H     1.0000    0     1.008   28.156919   22.903481   14.588686
  24 H     1.0000    0     1.008   27.949050   22.941275   17.498864
  25 O     8.0000    0    15.999   23.545988   26.323885   27.797871
  26 H     1.0000    0     1.008   22.922378   27.967947   27.401029
  27 H     1.0000    0     1.008   25.171152   26.153810   27.079775
  28 O     8.0000    0    15.999   13.643823   23.149145   19.407487
  29 H     1.0000    0     1.008   12.075350   22.884583   18.500419
  30 H     1.0000    0     1.008   13.624925   24.793207   20.068892
  31 O     8.0000    0    15.999   28.931707   19.785433   28.062433
  32 H     1.0000    0     1.008   28.875015   18.084679   27.268748
  33 H     1.0000    0     1.008   28.629351   20.900371   26.720728
  34 O     8.0000    0    15.999   25.605789   16.686282   15.646932
  35 H     1.0000    0     1.008   26.664036   16.875254   14.154049
  36 H     1.0000    0     1.008   24.169597   15.722521   15.174501
  37 O     8.0000    0    15.999   19.350796   10.053343   26.097118
  38 H     1.0000    0     1.008   19.936611   11.243870   27.438823
  39 H     1.0000    0     1.008   18.160268   11.300562   25.379022
  40 O     8.0000    0    15.999   18.727186   27.646693   17.498864
  41 H     1.0000    0     1.008   20.012200   28.100228   18.727186
  42 H     1.0000    0     1.008   19.010645   25.851454   16.969741
  43 O     8.0000    0    15.999   14.324124   27.363234   23.016864
  44 H     1.0000    0     1.008   15.514652   28.289200   24.094008
  45 H     1.0000    0     1.008   13.662720   26.078221   24.169597
  46 O     8.0000    0    15.999   16.742974   21.127138   27.495515
  47 H     1.0000    0     1.008   15.741419   20.957063   25.945940
  48 H     1.0000    0     1.008   18.424830   20.900371   26.701830
  49 O     8.0000    0    15.999   28.043536   16.931946   20.616912
  50 H     1.0000    0     1.008   27.495515   16.875254   18.802775
  51 H     1.0000    0     1.008   26.815214   15.741419   21.240522
  52 O     8.0000    0    15.999   22.393255   21.826337   11.262768
  53 H     1.0000    0     1.008   23.716063   21.901926   12.339912
  54 H     1.0000    0     1.008   21.032652   22.223179   12.415501
  55 O     8.0000    0    15.999   33.051310   25.567995   19.294104
  56 H     1.0000    0     1.008   32.559981   27.230954   19.879919
  57 H     1.0000    0     1.008   34.789858   25.246741   19.804330
  58 O     8.0000    0    15.999   25.265638   13.435953   23.262529
  59 H     1.0000    0     1.008   25.662481   13.757206   25.019974
  60 H     1.0000    0     1.008   25.983734   11.791891   23.016864
  61 O     8.0000    0    15.999   21.599570   13.454850   16.100467
  62 H     1.0000    0     1.008   20.786987   13.568234   17.706734
  63 H     1.0000    0     1.008   20.238967   12.755651   15.042220
  64 O     8.0000    0    15.999   33.051310   19.086234   22.317666
  65 H     1.0000    0     1.008   33.826098   18.311446   20.654707
  66 H     1.0000    0     1.008   34.298529   20.390145   22.638919
  67 O     8.0000    0    15.999   28.515967   25.794762   25.832556
  68 H     1.0000    0     1.008   28.761632   25.208947   24.112905
  69 H     1.0000    0     1.008   29.593111   27.230954   26.097118
  70 O     8.0000    0    15.999   17.309891   23.300323   11.584021
  71 H     1.0000    0     1.008   17.763426   25.076666   11.054898
  72 H     1.0000    0     1.008   17.026432   23.281426   13.379261
  73 O     8.0000    0    15.999   30.084440   21.089344   12.037555
  74 H     1.0000    0     1.008   31.180481   22.506638   11.810788
  75 H     1.0000    0     1.008   30.972611   19.823227   13.001316
  76 O     8.0000    0    15.999   26.191604   28.326995   16.365028
  77 H     1.0000    0     1.008   27.590002   29.158474   15.476857
  78 H     1.0000    0     1.008   26.682933   26.569549   16.176056
  79 O     8.0000    0    15.999   25.586892   25.360125   32.994618
  80 H     1.0000    0     1.008   26.210501   23.621577   33.108002
  81 H     1.0000    0     1.008   24.774310   25.379022   31.388351
  82 O     8.0000    0    15.999   13.738309   19.029542   22.808994
  83 H     1.0000    0     1.008   12.169836   18.783878   23.659371
  84 H     1.0000    0     1.008   13.549336   20.144481   21.505083
  85 O     8.0000    0    15.999   18.254754    7.861261   20.938166
  86 H     1.0000    0     1.008   19.539768    9.221864   21.202727
  87 H     1.0000    0     1.008   19.142926    6.803014   19.842124
  88 O     8.0000    0    15.999   15.930391   14.380816   24.415262
  89 H     1.0000    0     1.008   14.286330   13.549336   24.358570
  90 H     1.0000    0     1.008   15.911494   15.949289   23.583782
  91 O     8.0000    0    15.999    9.694295   22.960173   15.250090
  92 H     1.0000    0     1.008    8.069131   23.545988   15.779213
  93 H     1.0000    0     1.008   10.110035   23.716063   13.643823
  94 O     8.0000    0    15.999   22.638919   31.501735   25.756967
  95 H     1.0000    0     1.008   22.620022   32.522187   27.306543
  96 H     1.0000    0     1.008   23.980625   32.068652   24.642029
  97 Q     0.6645    0     0.000   22.525536   21.694056   36.018180
  98 Q     0.6645    0     0.000   23.961727   22.997967   38.077982
  99 Q    -1.3290    0     0.000   22.638919   22.468844   37.303194
 100 Q     0.6645    0     0.000   31.822988    9.543117   16.194953
 101 Q     0.6645    0     0.000   33.448153    9.618706   18.783878
 102 Q    -1.3290    0     0.000   32.673365    8.938405   17.479967
 103 Q     0.6645    0     0.000   11.130487    6.330583   27.684488
 104 Q     0.6645    0     0.000   12.850138    6.519555   29.876570
 105 Q    -1.3290    0     0.000   11.432843    6.292788   29.215166
 106 Q     0.6645    0     0.000   37.114221   23.394810    9.939959
 107 Q     0.6645    0     0.000   35.753618   25.265638   11.659610
 108 Q    -1.3290    0     0.000   36.755173   24.868796   10.525775
 109 Q     0.6645    0     0.000   16.251645   10.601364   35.715824
 110 Q     0.6645    0     0.000   15.401268    9.845473   38.455927
 111 Q    -1.3290    0     0.000   15.873700    9.637603   36.963043
 112 Q     0.6645    0     0.000   21.202727   11.092692   36.037077
 113 Q     0.6645    0     0.000   22.336563    8.503768   36.603995
 114 Q    -1.3290    0     0.000   22.185385    9.902165   35.829207
 115 Q     0.6645    0     0.000   13.511542   31.955269   27.778974
 116 Q     0.6645    0     0.000   13.209186   29.555317   29.328550
 117 Q    -1.3290    0     0.000   13.341467   31.161584   29.139577
 118 Q     0.6645    0     0.000   19.086234   30.065543   37.832317
 119 Q     0.6645    0     0.000   18.557111   31.898577   35.696927
 120 Q    -1.3290    0     0.000   18.368138   31.312762   37.170913
 121 Q     0.6645    0     0.000   35.073317   16.478412   35.961488
 122 Q     0.6645    0     0.000   37.000838   17.857912   37.208708
 123 Q    -1.3290    0     0.000   35.904797   16.780768   37.170913
 124 Q     0.6645    0     0.000   13.379261   24.301878   40.232269
 125 Q     0.6645    0     0.000   16.308337   24.642029   39.551968
 126 Q    -1.3290    0     0.000   14.664275   24.453056   39.211817
 127 Q     0.6645    0     0.000   34.884344   25.681378   33.221385
 128 Q     0.6645    0     0.000   32.578879   27.060878   34.393016
 129 Q    -1.3290    0     0.000   33.920584   26.909700   33.542639
 130 Q     0.6645    0     0.000   11.754097   24.849899   28.326995
 131 Q     0.6645    0     0.000   13.832795   25.473508   30.046646
 132 Q    -1.3290    0     0.000   12.415501   25.662481   29.555317
 133 Q     0.6645    0     0.000    8.579357   19.823227   13.303672
 134 Q     0.6645    0     0.000   10.091138   17.215405   12.680062
 135 Q    -1.3290    0     0.000    8.806124   18.160268   13.246980
 136 Q     0.6645    0     0.000   31.709605   34.638680   26.361680
 137 Q     0.6645    0     0.000   34.241838   35.829207   25.605789
 138 Q    -1.3290    0     0.000   33.221385   35.167803   26.607344
 139 Q     0.6645    0     0.000   29.933262   35.243392   21.996412
 140 Q     0.6645    0     0.000   27.306543   34.922139   23.243631
 141 Q    -1.3290    0     0.000   28.875015   34.676475   23.130248
 142 Q     0.6645    0     0.000    6.519555   29.404139   19.577563
 143 Q     0.6645    0     0.000    3.949528   30.311207   19.331898
 144 Q    -1.3290    0     0.000    5.102261   29.309652   19.048439
 145 Q     0.6645    0     0.000   38.342543   30.802536   24.018419
 146 Q     0.6645    0     0.000   37.284297   27.967947   23.905036
 147 Q    -1.3290    0     0.000   37.548858   29.498625   24.509748
 148 Q     0.6645    0     0.000    1.511781   19.124028   10.998206
 149 Q     0.6645    0     0.000    0.037795   16.799665   11.357254
 150 Q    -1.3290    0     0.000    1.133836   17.782323   11.772994
 151 Q     0.6645    0     0.000   21.391700    4.629829   32.597776
 152 Q     0.6645    0     0.000   20.654707    7.426624   33.561536
 153 Q    -1.3290    0     0.000   20.446837    5.782562   33.334769
 154 Q     0.6645    0     0.000    1.247219   11.640713   19.690946
 155 Q     0.6645    0     0.000    3.930630   10.714747   20.182275
 156 Q    -1.3290    0     0.000    2.362158   10.601364   19.842124
 157 Q     0.6645    0     0.000   35.848105   14.513097   28.308097
 158 Q     0.6645    0     0.000   35.980386   11.716302   28.534865
 159 Q    -1.3290    0     0.000   36.566201   13.190288   28.175817
 160 Q     0.6645    0     0.000   15.401268    5.121158   13.360364
 161 Q     0.6645    0     0.000   15.042220    3.817247   16.081569
 162 Q    -1.3290    0     0.000   15.854802    4.270781   14.702069
 163 Q     0.6645    0     0.000   17.234302   19.501974   39.854324
 164 Q     0.6645    0     0.000   19.917713   20.446837   39.344098
 165 Q    -1.3290    0     0.000   18.689391   20.125583   40.270064
 166 Q     0.6645    0     0.000    3.363713   26.871906   23.375912
 167 Q     0.6645    0     0.000    0.793685   25.927043   23.867241
 168 Q    -1.3290    0     0.000    2.210980   25.851454   23.186940
 169 Q     0.6645    0     0.000   26.966392   35.980386   13.511542
 170 Q     0.6645    0     0.000   28.648248   34.468605   11.602918
 171 Q    -1.3290    0     0.000   28.326995   35.489057   12.812343
 172 Q     0.6645    0     0.000   23.054659   29.800981    2.494438
 173 Q     0.6645    0     0.000   22.185385   28.081330    4.667624
 174 Q    -1.3290    0     0.000   22.128693   28.742734    3.155843
 175 Q     0.6645    0     0.000   13.927282   16.138261    3.231432
 176 Q     0.6645    0     0.000   11.357254   15.401268    2.286569
 177 Q    -1.3290    0     0.000   12.509987   15.439063    3.288123
 178 Q     0.6645    0     0.000   19.898816   31.350557   15.061117
 179 Q     0.6645    0     0.000   22.506638   30.027748   15.287884
 180 Q    -1.3290    0     0.000   21.467289   31.199378   14.796556
 181 Q     0.6645    0     0.000   25.416817    3.892836   29.782084
 182 Q     0.6645    0     0.000   23.848344    1.662959   28.534865
 183 Q    -1.3290    0     0.000   24.415262    2.626719   29.725392
 184 Q     0.6645    0     0.000   36.830762   23.394810   24.509748
 185 Q     0.6645    0     0.000   38.399235   22.657816   22.147590
 186 Q    -1.3290    0     0.000   37.567756   23.659371   23.130248
 187 Q     0.6645    0     0.000   15.646932    9.826576    5.706973
 188 Q     0.6645    0     0.000   14.191843   12.434398    5.442411
 189 Q    -1.3290    0     0.000   14.683172   10.922617    5.045569
 190 Q     0.6645    0     0.000   22.884583   35.621338   22.147590
 191 Q     0.6645    0     0.000   24.717618   37.586653   23.243631
 192 Q    -1.3290    0     0.000   24.264084   36.169358   22.771200
 193 Q     0.6645    0     0.000   26.097118   19.313001    2.267671
 194 Q     0.6645    0     0.000   26.569549   20.295659    4.724315
 195 Q    -1.3290    0     0.000   25.662481   19.596460    3.741658
 196 Q     0.6645    0     0.000   13.303672    6.500658    9.335247
 197 Q     0.6645    0     0.000   12.434398    7.804569   11.754097
 198 Q    -1.3290    0     0.000   13.435953    7.010884   10.809233
 199 Q     0.6645    0     0.000   21.977515    5.877048   16.194953
 200 Q     0.6645    0     0.000   19.124028    5.196747   16.176056
 201 Q    -1.3290    0     0.000   20.579118    5.291233   16.799665
 202 Q     0.6645    0     0.000    3.949528   24.150700   11.754097
 203 Q     0.6645    0     0.000    5.461309   23.602679    9.221864
 204 Q    -1.3290    0     0.000    4.781007   23.262529   10.639158
 205 Q     0.6645    0     0.000   38.701591   20.144481   19.105131
 206 Q     0.6645    0     0.000   41.536180   20.182275   19.445282
 207 Q    -1.3290    0     0.000   40.081091   20.276761   19.936611
 208 Q     0.6645    0     0.000   13.171391   27.911255   14.097357
 209 Q     0.6645    0     0.000   15.401268   27.854563   16.024878
 210 Q    -1.3290    0     0.000   14.021768   28.308097   15.363473
 211 Q     0.6645    0     0.000   15.250090   32.352111   15.306782
 212 Q     0.6645    0     0.000   17.177611   34.733166   15.268987
 213 Q    -1.3290    0     0.000   16.308337   33.467050   14.664275
 214 Q     0.6645    0     0.000   30.708050   31.161584   29.517522
 215 Q     0.6645    0     0.000   30.726947   32.673365   31.974166
 216 Q    -1.3290    0     0.000   30.008851   31.917474   30.764741
 217 Q     0.6645    0     0.000    6.897500   14.437508   14.059562
 218 Q     0.6645    0     0.000    7.577802   13.322569   11.640713
 219 Q    -1.3290    0     0.000    6.916398   13.228083   13.076905
 220 Q     0.6645    0     0.000    5.480206   22.979070    4.365267
 221 Q     0.6645    0     0.000    7.332137   25.114460    5.102261
 222 Q    -1.3290    0     0.000    6.576247   23.697166    5.329028
 223 Q     0.6645    0     0.000   22.317666   35.583543   30.084440
 224 Q     0.6645    0     0.000   20.314556   37.794523   30.311207
 225 Q    -1.3290    0     0.000   21.240522   36.698482   29.574214
 226 Q     0.6645    0     0.000   12.094247    9.845473   15.684727
 227 Q     0.6645    0     0.000    9.618706   10.147829   14.267432
 228 Q    -1.3290    0     0.000   10.979309    9.448631   14.645378
[...]
 323   Q   :    0.224943487    0.184276464    0.016828785
 324   Q   :   -0.311038744    0.059968968   -0.059717797
 325   Q   :    0.096987676   -0.239821875    0.038379902
 326   Q   :   -0.148658815    0.013481324    0.257199525
 327   Q   :    0.099272446    0.272163405   -0.115368910
 328   Q   :    0.051894907   -0.284509197   -0.143053224
 329   Q   :   -0.227907951   -0.231178782    0.015048642
 330   Q   :    0.225425661    0.019389790    0.189401915
 331   Q   :   -0.003289932    0.205278892   -0.201408084
 332   Q   :    0.079704048    0.093859496    0.251837372
 333   Q   :    0.151327006    0.014850801   -0.229993191
 334   Q   :   -0.230688475   -0.106678378   -0.011557333
 335   Q   :   -0.140771456   -0.015859786   -0.217646859
 336   Q   :    0.275966452   -0.005021158    0.004276310
 337   Q   :   -0.146969799    0.009494963    0.209972608
 338   Q   :    0.252427158   -0.089228935   -0.099882517
 339   Q   :   -0.091067029   -0.020277582    0.262223797
 340   Q   :   -0.157158416    0.120727476   -0.163990743
 341   Q   :    0.123655272    0.058725597   -0.254458287
 342   Q   :   -0.275339985   -0.076799072    0.041190736
 343   Q   :    0.142082631    0.015910718    0.206915021
 344   Q   :    0.061393397   -0.134722093   -0.186739310
 345   Q   :   -0.014862669   -0.057576340    0.287725159
 346   Q   :   -0.049060701    0.192708446   -0.093097434
 347   Q   :    0.008717649    0.113354218   -0.231984747
 348   Q   :   -0.167291116   -0.118443345    0.133803046
 349   Q   :    0.159709679   -0.002872522    0.094391499
 350   Q   :   -0.021277018    0.266385535    0.023142122
 351   Q   :    0.174993560   -0.186399296    0.135679111
 352   Q   :   -0.152482516   -0.089177085   -0.166345414
 353   Q   :   -0.115011039   -0.229679413   -0.038238352
 354   Q   :    0.260243321    0.060746032    0.004185275
 355   Q   :   -0.141018233    0.172004252    0.044684830
 356   Q   :   -0.159439135   -0.061898488    0.175789079
 357   Q   :   -0.002588192   -0.016044529   -0.230533795
 358   Q   :    0.165426168    0.086788264    0.053274529
 359   Q   :    0.048212193   -0.198020047    0.208859422
 360   Q   :    0.205324924    0.160492927   -0.134508993
 361   Q   :   -0.246286060    0.039334735   -0.075581110
 362   Q   :   -0.210624234   -0.114664441    0.151959027
 363   Q   :    0.279641828   -0.022157348    0.022834534
 364   Q   :   -0.071083464    0.122896908   -0.172722795
 365   Q   :   -0.033577054   -0.206952570   -0.251703051
 366   Q   :    0.224793111    0.122880618    0.093698983
 367   Q   :   -0.201241853    0.077942159    0.160245163
 368   Q   :    0.088361035    0.231223188    0.083084325
 369   Q   :   -0.255419478   -0.036453851   -0.163229711
 370   Q   :    0.156791728   -0.204265085    0.070122583
 371   Q   :    0.165905684   -0.122414704    0.194267547
 372   Q   :    0.067966519    0.221079139   -0.130354571
 373   Q   :   -0.233584854   -0.104512682   -0.051017604
 374   Q   :    0.220534285    0.006634720   -0.189436137
 375   Q   :   -0.100825118   -0.251003628    0.103192939
 376   Q   :   -0.112573170    0.241673198    0.100593410
 377   Q   :    0.174848353    0.254485657    0.131713123
 378   Q   :   -0.285250705   -0.012117231    0.068501057
 379   Q   :    0.118355953   -0.241941133   -0.199129292
 380   Q   :   -0.045786787    0.271186225   -0.053172995
 381   Q   :    0.190480224   -0.103837067    0.173815032
 382   Q   :   -0.139330770   -0.159240625   -0.117278926
 383   Q   :    0.184752280    0.007006447   -0.237176973
 384   Q   :   -0.087323510    0.237164191    0.132017888
 385   Q   :   -0.093755418   -0.249786413    0.104393415
 386   Q   :    0.012346572   -0.273468249   -0.029768062
 387   Q   :   -0.227626482    0.155394573    0.039746628
 388   Q   :    0.215353796    0.113796471   -0.010289455
 389   Q   :   -0.167452752   -0.180736271   -0.086799034
 390   Q   :    0.102839984    0.230598761   -0.138325681
 391   Q   :    0.065917690   -0.041217393    0.239352264
 392   Q   :   -0.284383357    0.011835245   -0.150381193
 393   Q   :    0.257741159   -0.035463776   -0.177815565
 394   Q   :    0.032406753    0.025997932    0.327279172
 395   Q   :    0.073519630    0.157483739   -0.231438040
 396   Q   :   -0.064634628   -0.291115751   -0.002663148
 397   Q   :   -0.023047033    0.125476426    0.230683126
 398   Q   :    0.103521643   -0.147273481   -0.195790528
 399   Q   :   -0.041623239    0.274123989   -0.003016020
 400   Q   :   -0.071324211   -0.125802372    0.200209836
 401   Q   :   -0.283336828   -0.084690515   -0.090037011
 402   Q   :    0.067206918    0.265906765   -0.037120322
 403   Q   :    0.218035958   -0.177136323    0.128803670
 404   Q   :    0.025293721    0.151835482   -0.194895269
 405   Q   :    0.078207620   -0.247757287    0.019121141
 406   Q   :   -0.100626864    0.093896668    0.180040120
 407   Q   :    0.240813318   -0.138532899   -0.058525610
 408   Q   :   -0.037824424    0.211668468    0.226211082
 409   Q   :   -0.212955158   -0.063253319   -0.171942017
 410   Q   :   -0.079507204   -0.246204169    0.157169575
 411   Q   :    0.240276862   -0.000968170   -0.202177546
 412   Q   :   -0.165497303    0.247914115    0.047691861
 413   Q   :    0.119618560   -0.185176926    0.150815891
 414   Q   :    0.002557362    0.287997619    0.071175947
 415   Q   :   -0.111756325   -0.105583732   -0.218874057
 416   Q   :    0.046673402    0.024438736   -0.298242614
 417   Q   :   -0.160068786    0.157707155    0.145544367
 418   Q   :    0.114560771   -0.177675480    0.146658623
 419   Q   :   -0.070284604    0.101128646    0.209282563
 420   Q   :   -0.110657413   -0.226151443   -0.128548066
 421   Q   :    0.177663575    0.114428384   -0.086753291
 422   Q   :   -0.207632582    0.074445068   -0.210349906
 423   Q   :   -0.108646996   -0.095440897    0.259009058
 424   Q   :    0.310855884    0.024803713   -0.046966290
 425   Q   :    0.083038681   -0.191383297   -0.142887037
 426   Q   :    0.035009949    0.257603203   -0.046066654
 427   Q   :   -0.105116788   -0.070142658    0.183595065
 428   Q   :    0.255909144    0.025088131   -0.068322293
 429   Q   :   -0.075562554   -0.152325280    0.222361471
 430   Q   :   -0.173284534    0.121190650   -0.149397047
 431   Q   :    0.197467607    0.236005291   -0.046594156
 432   Q   :   -0.178081567   -0.110010069   -0.202427738
 433   Q   :   -0.018131392   -0.121007042    0.240032859
 434   Q   :   -0.158953875    0.214464519   -0.019157845
 435   Q   :   -0.068347909   -0.241845850    0.002377223
 436   Q   :    0.218062823    0.019827972    0.023525306
 437   Q   :    0.091089923    0.227860219   -0.025010818
 438   Q   :   -0.129664275   -0.142651629   -0.174353917
 439   Q   :    0.033234270   -0.086099352    0.201141678
 440   Q   :    0.053365068   -0.009527104    0.297875778
 441   Q   :    0.064728302    0.252642176   -0.165783702
 442   Q   :   -0.110005023   -0.235447544   -0.135943764
 443   Q   :    0.144159130   -0.108660911   -0.193414489
 444   Q   :    0.029398828   -0.067410625    0.288279126
 445   Q   :   -0.177624666    0.177709763   -0.091421389
 446   Q   :    0.068392474    0.151751103    0.242896914
 447   Q   :    0.211696381   -0.160822516   -0.151969362
 448   Q   :   -0.271104400    0.006845318   -0.086112037
 449   Q   :   -0.058934916   -0.136816331   -0.233192017
 450   Q   :    0.267459805    0.015853283    0.094409879
 451   Q   :   -0.195367179    0.112345111    0.133209664
 452   Q   :    0.186823758    0.154390066   -0.115923493
 453   Q   :   -0.055616655   -0.017742549    0.266332999
 454   Q   :   -0.130926279   -0.126480947   -0.141506337
 455   Q   :    0.243465831   -0.082271388    0.172706523
 456   Q   :   -0.069643528   -0.127934194   -0.222099680
 457   Q   :   -0.170207559    0.202672995    0.059573515
 458   Q   :   -0.273881777   -0.030398736   -0.001387440
 459   Q   :    0.194013658   -0.218191922    0.046457882
 460   Q   :    0.086111063    0.240597117   -0.050901377
 461   Q   :    0.031393543   -0.210784984   -0.126444436
 462   Q   :   -0.134371478    0.172853360   -0.007493243
 463   Q   :    0.104786770    0.041315638    0.142543330
 464   Q   :    0.260571499   -0.074057962    0.090432018
 465   Q   :   -0.054351712    0.176923297   -0.197104067
 466   Q   :   -0.203416001   -0.103223305    0.119758861
 467   Q   :    0.147048421   -0.200068493   -0.047811334
 468   Q   :    0.031465142    0.229446036   -0.098478049
 469   Q   :   -0.179253824   -0.025233486    0.143542058
 470   Q   :   -0.249381044    0.157179676   -0.017768269
 471   Q   :    0.232837103    0.103354864    0.075368740
 472   Q   :    0.007260790   -0.254697877   -0.054975575
 473   Q   :   -0.063647294   -0.281618161    0.000217986
 474   Q   :    0.062782925    0.128800527   -0.248015231
 475   Q   :    0.009119888    0.155970565    0.244228302
 476   Q   :   -0.245697559    0.037217941    0.156519467
 477   Q   :    0.239816282    0.062335867    0.083606214
 478   Q   :    0.001792271   -0.090149820   -0.233274861
 479   Q   :   -0.123429611   -0.075742478    0.213660395
 480   Q   :   -0.052468366    0.279454884   -0.138696751
 481   Q   :    0.174443511   -0.200369260   -0.082588005
 482   Q   :    0.256334352   -0.064334635   -0.053604515
 483   Q   :   -0.157041051    0.093258224   -0.122387370
 484   Q   :   -0.087230385   -0.035429666    0.170550354
 485   Q   :    0.083952618   -0.024431484   -0.263756350
 486   Q   :    0.172639077    0.052319257    0.224287253
 487   Q   :   -0.245354637   -0.027142693    0.036042046
 488   Q   :   -0.283837174    0.019468271   -0.113564444
 489   Q   :    0.184302497    0.218868426    0.006675544
 490   Q   :    0.098154669   -0.243646381    0.108275991
 491   Q   :   -0.140661190   -0.117281361   -0.234143576
 492   Q   :    0.265773043   -0.009864954    0.057375627
 493   Q   :   -0.136682838    0.115055537    0.172887761
 494   Q   :    0.045778224    0.254592572   -0.111655433
 495   Q   :   -0.132872948   -0.227923844   -0.127497070
 496   Q   :    0.076395903   -0.029869704    0.240189938
 497   Q   :    0.215816017   -0.109758635    0.128045610
 498   Q   :   -0.058035246    0.001703667   -0.244193861
 499   Q   :   -0.161681508    0.118584063    0.121716754
 500   Q   :    0.146319355   -0.181166473    0.167687500
 501   Q   :   -0.067796733    0.240870243    0.057226263
 502   Q   :   -0.074990317   -0.060979020   -0.219258249
 503   Q   :    0.068810644    0.232024075    0.189112092
 504   Q   :   -0.163063971   -0.217354781    0.109719466
 505   Q   :    0.086604631   -0.007930191   -0.294379025
 506   Q   :    0.094552660   -0.233538727    0.072319545
 507   Q   :   -0.070171833    0.076107296   -0.239831487
 508   Q   :   -0.016976947    0.167235090    0.165491711
 509   Q   :   -0.140652634    0.074941932    0.187227501
 510   Q   :    0.248059885   -0.142637427    0.032403462
 511   Q   :   -0.089247882    0.066090808   -0.226489568
 512   Q   :    0.230929102    0.183631477    0.034806433
 513   Q   :   -0.001879593   -0.284192326    0.058225935
 514   Q   :   -0.230792549    0.110532140   -0.092434229
 515   Q   :   -0.093410873   -0.256049767    0.031329796
 516   Q   :    0.155751118    0.096103126   -0.220200266
 517   Q   :   -0.070818089    0.148461253    0.191627972
 518   Q   :    0.227537866    0.064412008    0.128887104
 519   Q   :   -0.229916379    0.144360338    0.006641384
 520   Q   :    0.015806305   -0.202030575   -0.129700920
 521   Q   :    0.025955452   -0.223158380    0.134391169
 522   Q   :   -0.200835819    0.105014609   -0.171827722
 523   Q   :    0.166049094    0.122211553    0.026366557
 524   Q   :    0.130210618    0.192636383    0.155966713
 525   Q   :   -0.253014588   -0.156770378    0.103077622
 526   Q   :    0.119433042   -0.045380549   -0.262856201
 527   Q   :   -0.260115060    0.077279889    0.084113884
 528   Q   :    0.174630247    0.179060159   -0.127543238
 529   Q   :    0.083026881   -0.256172084    0.044703977
 530   Q   :   -0.162156874   -0.018453313    0.202239800
 531   Q   :    0.275842198    0.111411875    0.012670281
 532   Q   :   -0.116763311   -0.078851875   -0.215999319
 533   Q   :   -0.197758589   -0.002455642   -0.202311443
 534   Q   :    0.267643128   -0.097531492   -0.024956012
 535   Q   :   -0.071455968    0.100175345    0.219895723
 536   Q   :   -0.096647366    0.257508133   -0.071921893
 537   Q   :    0.094697758   -0.088293027    0.215726351
 538   Q   :   -0.004136514   -0.149262662   -0.141049945
 539   Q   :   -0.036931333   -0.066336688    0.274426255
 540   Q   :    0.268242525    0.085209075   -0.094341508
 541   Q   :   -0.228321195   -0.017203770   -0.185232442
 542   Q   :    0.241657197   -0.045165229    0.114518831
 543   Q   :   -0.216020446   -0.022840724    0.130966125
 544   Q   :   -0.016991778    0.064138483   -0.237387332
 545   Q   :    0.180874400   -0.174612516    0.044452720
 546   Q   :   -0.211231480   -0.031424869   -0.140473823
 547   Q   :    0.027368948    0.201831538    0.105897089
 548   Q   :   -0.199003404    0.027514212    0.215665036
 549   Q   :    0.273832186   -0.102071439    0.060524589
 550   Q   :   -0.068160784    0.070839376   -0.272859135
 551   Q   :    0.243994239    0.032978926    0.075442348
 552   Q   :   -0.206619664    0.193245543    0.051228419
 553   Q   :   -0.046335973   -0.220649200   -0.130601135
 554   Q   :    0.164413026   -0.058307229   -0.207443291
 555   Q   :    0.045632625   -0.061467906    0.290139332
 556   Q   :   -0.204972281    0.120914016   -0.070264132
 557   Q   :   -0.050247920   -0.194861190    0.098296865
 558   Q   :   -0.017803804    0.103301964   -0.227557406
 559   Q   :    0.064392570    0.106424370    0.115114803
 560   Q   :   -0.050253456   -0.140156420    0.254122152
 561   Q   :   -0.074487607   -0.088621912   -0.263833199
 562   Q   :    0.130569628    0.216505607    0.003578276
 563   Q   :   -0.235618611   -0.052683622    0.115267800
 564   Q   :    0.036428341    0.088872862   -0.247120078
 565   Q   :    0.196713109   -0.048639862    0.133147541
 566   Q   :    0.184852165    0.191603584    0.093840372
 567   Q   :   -0.045161750   -0.248284123    0.096966702
 568   Q   :   -0.147500934    0.059956640   -0.200201405
 569   Q   :   -0.120692509    0.082720786    0.237715170
 570   Q   :    0.145049217   -0.232395639   -0.014274655
 571   Q   :   -0.013418578    0.152225211   -0.231802052
 572   Q   :   -0.070655953    0.111877530    0.268937863
 573   Q   :    0.002422385   -0.294263242   -0.032098329
 574   Q   :    0.069318524    0.166827039   -0.238634662
 575   Q   :   -0.206328509   -0.030114151    0.159230903
 576   Q   :   -0.000707892   -0.099623853   -0.253936042
 577   Q   :    0.210136085    0.132465197    0.086823016
 578   Q   :   -0.143624897   -0.117378457    0.239263305
 579   Q   :   -0.152586174    0.134940230   -0.226703209
 580   Q   :    0.312636566   -0.011345427   -0.019267771
 581   Q   :    0.050914016    0.033862599   -0.232128976
 582   Q   :    0.067652132    0.134555754    0.217650612
 583   Q   :   -0.115871953   -0.177737459    0.026256093
 584   Q   :   -0.218010869    0.129785884   -0.081102742
 585   Q   :    0.240543305   -0.019460053   -0.136390493
 586   Q   :   -0.021354752   -0.126508861    0.207682201
 587   Q   :   -0.251792187    0.030383671   -0.131269935
 588   Q   :    0.206062198    0.178147642    0.037541730
 589   Q   :    0.053207438   -0.204141209    0.089689816
 590   Q   :   -0.073691497    0.263451139   -0.041247930
 591   Q   :    0.040367934   -0.128871482    0.274925022
 592   Q   :    0.030882488   -0.133715027   -0.228475906
 593   Q   :    0.035995561   -0.268266795   -0.045874726
 594   Q   :   -0.204427621    0.153114594   -0.094567641
 595   Q   :    0.174033156    0.105931678    0.141583377
 596   Q   :   -0.030776840    0.069484792    0.252636122
 597   Q   :    0.106167982   -0.216678325   -0.139733071
 598   Q   :   -0.075447063    0.140065444   -0.113657024
 599   Q   :    0.088635070    0.153334057   -0.234780669
 600   Q   :   -0.073516909    0.096562026    0.246262573
 601   Q   :   -0.013771343   -0.244197746   -0.013265681
 602   Q   :   -0.154881516   -0.217721102   -0.105213654
 603   Q   :   -0.014440116    0.062213832    0.254696064
 604   Q   :    0.172110865    0.144014178   -0.148509339
 605   Q   :   -0.207826750   -0.013685866   -0.218090974
 606   Q   :   -0.025960709   -0.073794630    0.254499100
 607   Q   :    0.237230604    0.092622775   -0.042073286
 608   Q   :    0.074977654   -0.257121306    0.011799514
 609   Q   :    0.165146590    0.185325904   -0.084141221
 610   Q   :   -0.237402445    0.077614498    0.067129974
 611   Q   :   -0.231729508    0.139902460   -0.155378037
 612   Q   :    0.028414747    0.062276925    0.293256846
 613   Q   :    0.197442308   -0.200638072   -0.135634177

Difference to translation invariance:
           :   -0.0001818517   -0.0001464260    0.0001643744

Difference to rotation invariance:
           :    0.0135324435   -0.0109328137    0.0035989958

Norm of the cartesian gradient     ...    6.2419146942
RMS gradient                       ...    0.1455549450
MAX gradient                       ...    0.3272791716

-------
TIMINGS
-------

Total SCF gradient time            ...      163.494 sec

One electron gradient       ....      22.677 sec  ( 13.9%)
RI-J Coulomb gradient       ....       8.857 sec  (  5.4%)
COSX gradient               ....      99.285 sec  ( 60.7%)
XC gradient                 ....      13.976 sec  (  8.5%)

Maximum memory used throughout the entire SCFGRAD-calculation: 685.4 MB

                            ***************************************
                            *     ORCA property calculations      *
                            ***************************************

                                    ---------------------
                                    Active property flags
                                    ---------------------
   (+) Dipole Moment


------------------------------------------------------------------------------
                       ORCA ELECTRIC PROPERTIES CALCULATION
------------------------------------------------------------------------------

Dipole Moment Calculation                       ... on
Quadrupole Moment Calculation                   ... off
Polarizability Calculation                      ... off
GBWName                                         ... final039.orca.gbw
Electron density                                ... final039.orca.scfp
The origin for moment calculation is the CENTER OF MASS  = (22.212889, 20.820074 20.851995)

-------------
DIPOLE MOMENT
-------------
                                X             Y             Z
Electronic contribution:     -1.68313       1.58353       0.64313
Nuclear contribution   :     12.44891       6.00942      -7.77764
                        -----------------------------------------
Total Dipole Moment    :     10.76578       7.59295      -7.13451
                        -----------------------------------------
Magnitude (a.u.)       :     14.98186
Magnitude (Debye)      :     38.08087



--------------------
Rotational spectrum 
--------------------
 
Rotational constants in cm-1:     0.001965     0.001698     0.001639 
Rotational constants in MHz :    58.899293    50.918651    49.145120 

 Dipole components along the rotational axes: 
x,y,z [a.u.] :   -11.465038    -5.450091     7.956482 
x,y,z [Debye]:   -29.141811   -13.853030    20.223771 

 

Timings for individual modules:

Sum of individual times         ...      709.183 sec (=  11.820 min)
GTO integral calculation        ...       11.803 sec (=   0.197 min)   1.7 %
SCF iterations                  ...      529.462 sec (=   8.824 min)  74.7 %
SCF Gradient evaluation         ...      167.918 sec (=   2.799 min)  23.7 %
                             ****ORCA TERMINATED NORMALLY****
TOTAL RUN TIME: 0 days 0 hours 11 minutes 56 seconds 537 msec
