
                                 *****************
                                 * O   R   C   A *
                                 *****************

                                            #,                                       
                                            ###                                      
                                            ####                                     
                                            #####                                    
                                            ######                                   
                                           ########,                                 
                                     ,,################,,,,,                         
                               ,,#################################,,                 
                          ,,##########################################,,             
                       ,#########################################, ''#####,          
                    ,#############################################,,   '####,        
                  ,##################################################,,,,####,       
                ,###########''''           ''''###############################       
              ,#####''   ,,,,##########,,,,          '''####'''          '####       
            ,##' ,,,,###########################,,,                        '##       
           ' ,,###''''                  '''############,,,                           
         ,,##''                                '''############,,,,        ,,,,,,###''
      ,#''                                            '''#######################'''  
     '                                                          ''''####''''         
             ,#######,   #######,   ,#######,      ##                                
            ,#'     '#,  ##    ##  ,#'     '#,    #''#        ######   ,####,        
            ##       ##  ##   ,#'  ##            #'  '#       #        #'  '#        
            ##       ##  #######   ##           ,######,      #####,   #    #        
            '#,     ,#'  ##    ##  '#,     ,#' ,#      #,         ##   #,  ,#        
             '#######'   ##     ##  '#######'  #'      '#     #####' # '####'        



                  #######################################################
                  #                        -***-                        #
                  #          Department of theory and spectroscopy      #
                  #    Directorship and core code : Frank Neese         #
                  #        Max Planck Institute fuer Kohlenforschung    #
                  #                Kaiser Wilhelm Platz 1               #
                  #                 D-45470 Muelheim/Ruhr               #
                  #                      Germany                        #
                  #                                                     #
                  #                  All rights reserved                #
                  #                        -***-                        #
                  #######################################################


                         Program Version 5.0.3 -  RELEASE  -


 With contributions from (in alphabetic order):
   Daniel Aravena         : Magnetic Suceptibility
   Michael Atanasov       : Ab Initio Ligand Field Theory (pilot matlab implementation)
   Alexander A. Auer      : GIAO ZORA, VPT2 properties, NMR spectrum
   Ute Becker             : Parallelization
   Giovanni Bistoni       : ED, misc. LED, open-shell LED, HFLD
   Martin Brehm           : Molecular dynamics
   Dmytro Bykov           : SCF Hessian
   Vijay G. Chilkuri      : MRCI spin determinant printing, contributions to CSF-ICE
   Dipayan Datta          : RHF DLPNO-CCSD density
   Achintya Kumar Dutta   : EOM-CC, STEOM-CC
   Dmitry Ganyushin       : Spin-Orbit,Spin-Spin,Magnetic field MRCI
   Miquel Garcia          : C-PCM and meta-GGA Hessian, CC/C-PCM, Gaussian charge scheme
   Yang Guo               : DLPNO-NEVPT2, F12-NEVPT2, CIM, IAO-localization
   Andreas Hansen         : Spin unrestricted coupled pair/coupled cluster methods
   Benjamin Helmich-Paris : MC-RPA, TRAH-SCF, COSX integrals
   Lee Huntington         : MR-EOM, pCC
   Robert Izsak           : Overlap fitted RIJCOSX, COSX-SCS-MP3, EOM
   Marcus Kettner         : VPT2
   Christian Kollmar      : KDIIS, OOCD, Brueckner-CCSD(T), CCSD density, CASPT2, CASPT2-K
   Simone Kossmann        : Meta GGA functionals, TD-DFT gradient, OOMP2, MP2 Hessian
   Martin Krupicka        : Initial AUTO-CI
   Lucas Lang             : DCDCAS
   Marvin Lechner         : AUTO-CI (C++ implementation), FIC-MRCC
   Dagmar Lenk            : GEPOL surface, SMD
   Dimitrios Liakos       : Extrapolation schemes; Compound Job, initial MDCI parallelization
   Dimitrios Manganas     : Further ROCIS development; embedding schemes
   Dimitrios Pantazis     : SARC Basis sets
   Anastasios Papadopoulos: AUTO-CI, single reference methods and gradients
   Taras Petrenko         : DFT Hessian,TD-DFT gradient, ASA, ECA, R-Raman, ABS, FL, XAS/XES, NRVS
   Peter Pinski           : DLPNO-MP2, DLPNO-MP2 Gradient
   Christoph Reimann      : Effective Core Potentials
   Marius Retegan         : Local ZFS, SOC
   Christoph Riplinger    : Optimizer, TS searches, QM/MM, DLPNO-CCSD(T), (RO)-DLPNO pert. Triples
   Tobias Risthaus        : Range-separated hybrids, TD-DFT gradient, RPA, STAB
   Michael Roemelt        : Original ROCIS implementation
   Masaaki Saitow         : Open-shell DLPNO-CCSD energy and density
   Barbara Sandhoefer     : DKH picture change effects
   Avijit Sen             : IP-ROCIS
   Kantharuban Sivalingam : CASSCF convergence, NEVPT2, FIC-MRCI
   Bernardo de Souza      : ESD, SOC TD-DFT
   Georgi Stoychev        : AutoAux, RI-MP2 NMR, DLPNO-MP2 response
   Willem Van den Heuvel  : Paramagnetic NMR
   Boris Wezisla          : Elementary symmetry handling
   Frank Wennmohs         : Technical directorship


 We gratefully acknowledge several colleagues who have allowed us to
 interface, adapt or use parts of their codes:
   Stefan Grimme, W. Hujo, H. Kruse, P. Pracht,  : VdW corrections, initial TS optimization,
                  C. Bannwarth, S. Ehlert          DFT functionals, gCP, sTDA/sTD-DF
   Ed Valeev, F. Pavosevic, A. Kumar             : LibInt (2-el integral package), F12 methods
   Garnet Chan, S. Sharma, J. Yang, R. Olivares  : DMRG
   Ulf Ekstrom                                   : XCFun DFT Library
   Mihaly Kallay                                 : mrcc  (arbitrary order and MRCC methods)
   Jiri Pittner, Ondrej Demel                    : Mk-CCSD
   Frank Weinhold                                : gennbo (NPA and NBO analysis)
   Christopher J. Cramer and Donald G. Truhlar   : smd solvation model
   Lars Goerigk                                  : TD-DFT with DH, B97 family of functionals
   V. Asgeirsson, H. Jonsson                     : NEB implementation
   FAccTs GmbH                                   : IRC, NEB, NEB-TS, DLPNO-Multilevel, CI-OPT
                                                   MM, QMMM, 2- and 3-layer-ONIOM, Crystal-QMMM,
                                                   LR-CPCM, SF, NACMEs, symmetry and pop. for TD-DFT,
                                                   nearIR, NL-DFT gradient (VV10), updates on ESD,
                                                   ML-optimized integration grids
   S Lehtola, MJT Oliveira, MAL Marques          : LibXC Library
   Liviu Ungur et al                             : ANISO software


 Your calculation uses the libint2 library for the computation of 2-el integrals
 For citations please refer to: http://libint.valeyev.net

 Your ORCA version has been built with support for libXC version: 5.1.0
 For citations please refer to: https://tddft.org/programs/libxc/

 This ORCA versions uses:
   CBLAS   interface :  Fast vector & matrix operations
   LAPACKE interface :  Fast linear algebra routines
   SCALAPACK package :  Parallel linear algebra routines
   Shared memory     :  Shared parallel matrices
   BLAS/LAPACK       :  OpenBLAS 0.3.15  USE64BITINT DYNAMIC_ARCH NO_AFFINITY SkylakeX SINGLE_THREADED
        Core in use  :  SkylakeX
   Copyright (c) 2011-2014, The OpenBLAS Project


================================================================================

----- Orbital basis set information -----
Your calculation utilizes the basis: def2-SVP
   F. Weigend and R. Ahlrichs, Phys. Chem. Chem. Phys. 7, 3297 (2005).

The basis set includes element-specific modifications.

Your calculation utilizes the basis: aug-cc-pVTZ 
    H, B-Ne : Obtained from the ccRepo (grant-hill.group.shef.ac.uk/ccrepo) Feb. 2017
              R. A. Kendall, T. H. Dunning, Jr., R. J. Harrison, J. Chem. Phys. 96, 6796 (1992)
         He : Obtained from the ccRepo (grant-hill.group.shef.ac.uk/ccrepo) Feb. 2017
              D. E. Woon, T. H. Dunning, Jr., J. Chem. Phys. 100, 2975 (1994)
  Li-Be, Na : Obtained from the ccRepo (grant-hill.group.shef.ac.uk/ccrepo) Feb. 2017
              B. P. Prascher, D. E. Woon, K. A. Peterson, T. H. Dunning, Jr., A. K. Wilson, Theor. Chem. Acc. 128, 69 (2011)
         Mg : Obtained from the Peterson Research Group Website (tyr0.chem.wsu.edu/~kipeters) Feb. 2017
              B. P. Prascher, D. E. Woon, K. A. Peterson, T. H. Dunning, Jr., A. K. Wilson, Theor. Chem. Acc. 128, 69 (2011)
      Al-Ar : Obtained from the ccRepo (grant-hill.group.shef.ac.uk/ccrepo) Feb. 2017
              D. E. Woon, T. H. Dunning, Jr., J. Chem. Phys. 98, 1358 (1993)
      Sc-Zn : Obtained from the ccRepo (grant-hill.group.shef.ac.uk/ccrepo) Feb. 2017
              N. B. Balabanov, K. A. Peterson, J. Chem. Phys. 123, 064107 (2005)
              N. B. Balabanov, K. A. Peterson, J. Chem. Phys. 125, 074110 (2006)
      Ga-Kr : Obtained from the ccRepo (grant-hill.group.shef.ac.uk/ccrepo) Feb. 2017
              A. K. Wilson, D. E. Woon, K. A. Peterson, T. H. Dunning, Jr., J. Chem. Phys. 110, 7667 (1999)
     Ag, Au : Obtained from the Peterson Research Group Website (tyr0.chem.wsu.edu/~kipeters) Feb. 2017
              K. A. Peterson, C. Puzzarini, Theor. Chem. Acc. 114, 283 (2005)

Your calculation utilizes the basis: cc-pVTZ 
       H, B-Ne : Obtained from the ccRepo (grant-hill.group.shef.ac.uk/ccrepo) Feb. 2017
                 T. H. Dunning, Jr., J. Chem. Phys. 90, 1007 (1989)
            He : Obtained from the ccRepo (grant-hill.group.shef.ac.uk/ccrepo) Feb. 2017
                 D. E. Woon, T. H. Dunning, Jr., J. Chem. Phys. 100, 2975 (1994)
  Li-Be, Na-Mg : Obtained from the ccRepo (grant-hill.group.shef.ac.uk/ccrepo) Feb. 2017
                 B. P. Prascher, D. E. Woon, K. A. Peterson, T. H. Dunning, Jr., A. K. Wilson, Theor. Chem. Acc. 128, 69 (2011)
         Al-Ar : Obtained from the ccRepo (grant-hill.group.shef.ac.uk/ccrepo) Feb. 2017
                 D. E. Woon, T. H. Dunning, Jr., J. Chem. Phys. 98, 1358 (1993)
            Ca : Obtained from the Peterson Research Group Website (tyr0.chem.wsu.edu/~kipeters) Feb. 2017
                 J. Koput, K. A. Peterson, J. Phys. Chem. 106, 9595 (2002)
         Sc-Zn : Obtained from the ccRepo (grant-hill.group.shef.ac.uk/ccrepo) Feb. 2017
                 N. B. Balabanov, K. A. Peterson, J. Chem. Phys. 123, 064107 (2005)
                 N. B. Balabanov, K. A. Peterson, J. Chem. Phys. 125, 074110 (2006)
         Ga-Kr : Obtained from the ccRepo (grant-hill.group.shef.ac.uk/ccrepo) Feb. 2017
                 A. K. Wilson, D. E. Woon, K. A. Peterson, T. H. Dunning, Jr., J. Chem. Phys. 110, 7667 (1999)
             Y : Obtained from the ccRepo (grant-hill.group.shef.ac.uk/ccrepo) Feb. 2017
                 K. A. Peterson, D. Figgen, M. Dolg, H. Stoll, J. Chem. Phys. 126, 124101 (2007)
        Ag, Au : Obtained from the Peterson Research Group Website (tyr0.chem.wsu.edu/~kipeters) Feb. 2017
                 K. A. Peterson, C. Puzzarini, Theor. Chem. Acc. 114, 283 (2005)

----- AuxJ basis set information -----
Your calculation utilizes the auxiliary basis: def2/J
   F. Weigend, Phys. Chem. Chem. Phys. 8, 1057 (2006).

================================================================================
                                        WARNINGS
                       Please study these warnings very carefully!
================================================================================

WARNING: The globally-selected AuxJ basis set is optimized for use with ECPs
         Make sure a suitable alternative is explicitly given all heavy elements (Z>36)

INFO   : the flag for use of the SHARK integral package has been found!

================================================================================
                                       INPUT FILE
================================================================================
NAME = final077.orca.inp
|  1> ! NoMOPrint PrintBasis #MINIPRINT SMALLPRINT LARGEPRINT
|  2> ! ALLPOP XYZFILE
|  3> #! BP86 3-21G   TightSCF
|  4> ! ENGRAD
|  5> ! B3LYP NormalPNO PModel #DecontractAux
|  6> #! VerySlowConv 
|  7>  %maxcore 5000
|  8>  %scf  maxiter   500  end 
|  9> 
| 10> %pal
| 11>     nprocs 32
| 12> end
| 13> 
| 14> %basis
| 15>     NewGTO O    # New basis for oxygen
| 16>         "aug-cc-pVTZ"
| 17>     end
| 18>     NewGTO C    # New basis for carbon
| 19>         "aug-cc-pVTZ"
| 20>     end
| 21>     NewGTO H    # New basis for hydrogen
| 22>         "cc-pVTZ"
| 23>     end
| 24> end
| 25> 
| 26> * xyz 0   1
| 27>   C  9.55  10.28  11.84  #1
| 28>   H  8.64  10.93  11.79  #2
| 29>   H  10.19  10.67  12.57  #3
| 30>   C  10.28  10.1  10.51  #4
| 31>   H  11  9.33  10.76  #5
| 32>   H  9.68  9.86  9.67  #6
| 33>   C  11.08  11.31  9.96  #7
| 34>   H  10.42  12.21  9.91  #8
| 35>   H  11.19  11.12  8.91  #9
| 36>   C  12.38  11.7  10.65  #10
| 37>   H  13  10.88  11  #11
| 38>   H  12.03  12.1  11.6  #12
| 39>   O  13.11  12.74  10.04  #13
| 40>   H  13.44  12.42  9.17  #14
| 41>   O  9  9.05  12.13  #15
| 42>   H  8.34  9.12  12.88  #16
| 43>   O  8.21  6.6  10.74  #17
| 44>   H  8.35  7.52  10.85  #18
| 45>   H  8.55  6.35  9.81  #19
| 46>   O  12.8  9.18  12.81  #20
| 47>   H  12.57  9.84  13.44  #21
| 48>   H  12.3  8.35  13.02  #22
| 49>   O  12.07  15.02  9.09  #23
| 50>   H  12.61  14.33  9.58  #24
| 51>   H  12.61  15.21  8.28  #25
| 52>   O  15.12  9.13  11.29  #26
| 53>   H  14.92  8.53  10.54  #27
| 54>   H  14.3  9.23  11.85  #28
| 55>   O  7.34  11.59  8.55  #29
| 56>   H  7.6  11.72  7.62  #30
| 57>   H  7.79  12.38  8.8  #31
| 58>   O  14.51  16.76  8.06  #32
| 59>   H  15.29  16.95  7.51  #33
| 60>   H  14.7  17.02  8.95  #34
| 61>   O  17.33  10.91  10.88  #35
| 62>   H  18.12  10.47  11.09  #36
| 63>   H  16.64  10.28  11.08  #37
| 64>   O  16.96  7.73  12.6  #38
| 65>   H  16.14  7.95  12.13  #39
| 66>   H  17.65  8.4  12.4  #40
| 67>   O  8.22  12.52  6.16  #41
| 68>   H  8.18  13.47  6.34  #42
| 69>   H  9.17  12.41  6.11  #43
| 70>   O  6.29  8.41  13.69  #44
| 71>   H  6.31  7.83  12.95  #45
| 72>   H  5.53  8.96  13.46  #46
| 73>   O  8.61  4.65  12.71  #47
| 74>   H  9.2  4.83  13.45  #48
| 75>   H  8.4  5.47  12.32  #49
| 76>   O  15.18  6.74  9.25  #50
| 77>   H  14.46  6.21  9.73  #51
| 78>   H  14.84  7.18  8.47  #52
| 79>   O  14.51  14.15  6.53  #53
| 80>   H  13.6  14.4  6.3  #54
| 81>   H  14.83  14.88  7.05  #55
| 82>   O  5.87  12.3  13.06  #56
| 83>   H  6.63  11.99  13.61  #57
| 84>   H  5.47  13.05  13.49  #58
| 85>   O  11.39  11.79  6.12  #59
| 86>   H  11.49  11.46  5.26  #60
| 87>   H  12.31  11.79  6.51  #61
| 88>   O  12.3  17.94  6.72  #62
| 89>   H  12.41  17.77  5.82  #63
| 90>   H  12.97  17.46  7.18  #64
| 91>   O  9.01  6.14  8.19  #65
| 92>   H  8.56  5.72  7.46  #66
| 93>   H  9.82  6.55  7.86  #67
| 94>   O  12.99  11.42  14.67  #68
| 95>   H  12.8  12.32  14.38  #69
| 96>   H  12.97  11.45  15.63  #70
| 97>   O  11.09  9.44  15.85  #71
| 98>   H  11.86  9.04  15.49  #72
| 99>   H  11.01  10.23  15.33  #73
|100>   O  4.47  11.43  7.21  #74
|101>   H  5.26  11.25  7.74  #75
|102>   H  4.15  12.33  7.61  #76
|103>   O  11.35  6.69  12.87  #77
|104>   H  11.4  6.24  13.74  #78
|105>   H  10.52  7.19  12.85  #79
|106>   O  11.84  14.56  6.1  #80
|107>   H  11.56  13.67  5.9  #81
|108>   H  11.87  15.1  5.28  #82
|109>   O  8.37  13.89  9.74  #83
|110>   H  8.61  13.67  10.65  #84
|111>   H  8.81  14.7  9.65  #85
|112>   O  7.94  11.17  14.73  #86
|113>   H  7.55  10.59  15.43  #87
|114>   H  8.61  11.77  15.3  #88
|115>   O  6.85  9.93  5.54  #89
|116>   H  7.27  10.77  5.37  #90
|117>   H  7.33  9.56  6.28  #91
|118>   O  13.9  11.56  6.88  #92
|119>   H  14.53  12.3  6.86  #93
|120>   H  14.41  10.74  6.96  #94
|121>   O  5.79  14.57  7.73  #95
|122>   H  6.05  14.53  6.84  #96
|123>   H  6.46  14.08  8.24  #97
|124>   O  15.69  10.45  14.53  #98
|125>   H  15.74  9.55  14.21  #99
|126>   H  14.78  10.72  14.44  #100
|127>   O  5.75  5.5  12.19  #101
|128>   H  6.26  5.61  11.37  #102
|129>   H  4.91  5.9  12.01  #103
|130>   O  8.47  9.22  7.65  #104
|131>   H  9.4  9.13  7.86  #105
|132>   H  8.2  10.01  8.13  #106
|133>   O  14.47  14.57  11.49  #107
|134>   H  14.18  13.85  10.92  #108
|135>   H  15.39  14.37  11.6  #109
|136>   O  10.5  17.26  9.51  #110
|137>   H  11.03  16.48  9.45  #111
|138>   H  10.92  17.74  8.81  #112
|139>   Q  0.6645  20.31$  11.73$  13.96$
|140>   Q  0.6645  20.6$  13.27$  14.08$
|141>   Q  -1.3290  20.12$  12.57$  14.04$
|142>   Q  0.6645  12.23$  7.55$  21.06$
|143>   Q  0.6645  11.37$  6.52$  20.39$
|144>   Q  -1.3290  12.1$  6.84$  20.66$
|145>   Q  0.6645  4.65$  7.06$  5.46$
|146>   Q  0.6645  4.05$  6.26$  6.62$
|147>   Q  -1.3290  4.67$  6.47$  6.07$
|148>   Q  0.6645  19.68$  7.81$  4.15$
|149>   Q  0.6645  18.51$  7.65$  5.11$
|150>   Q  -1.3290  18.97$  7.46$  4.44$
|151>   Q  0.6645  0.22$  12.75$  6.53$
|152>   Q  0.6645  1.84$  12.79$  6.85$
|153>   Q  -1.3290  1.06$  12.52$  6.52$
|154>   Q  0.6645  9.53$  14.91$  13.38$
|155>   Q  0.6645  10.58$  16$  13.33$
|156>   Q  -1.3290  10.15$  15.37$  13.71$
|157>   Q  0.6645  5.25$  6.53$  1.67$
|158>   Q  0.6645  4.55$  7.51$  2.69$
|159>   Q  -1.3290  4.8$  7.23$  1.93$
|160>   Q  0.6645  13.81$  1.88$  13.96$
|161>   Q  0.6645  13.69$  0.47$  13.39$
|162>   Q  -1.3290  14.06$  1.1$  13.8$
|163>   Q  0.6645  13.4$  19.3$  17.41$
|164>   Q  0.6645  12.91$  19.1$  15.99$
|165>   Q  -1.3290  13.33$  19.48$  16.58$
|166>   Q  0.6645  14.02$  1.65$  8.85$
|167>   Q  0.6645  14.22$  0.47$  9.95$
|168>   Q  -1.3290  13.84$  1.16$  9.57$
|169>   Q  0.6645  10$  15.05$  6.42$
|170>   Q  0.6645  8.78$  15.91$  6.64$
|171>   Q  -1.3290  9.18$  15.26$  6.34$
|172>   Q  0.6645  10.06$  3.66$  8.54$
|173>   Q  0.6645  10.24$  4.12$  7.04$
|174>   Q  -1.3290  10.16$  3.55$  7.67$
|175>   Q  0.6645  6.07$  4.94$  13.79$
|176>   Q  0.6645  6.95$  3.84$  14.32$
|177>   Q  -1.3290  6.45$  4.5$  14.4$
|178>   Q  0.6645  7.75$  17.73$  3.82$
|179>   Q  0.6645  6.37$  17.88$  3.3$
|180>   Q  -1.3290  7.14$  17.55$  3.29$
|181>   Q  0.6645  11.41$  4.36$  15.49$
|182>   Q  0.6645  12.13$  5.57$  16.12$
|183>   Q  -1.3290  11.72$  5.16$  15.51$
|184>   Q  0.6645  17.29$  6.28$  11.35$
|185>   Q  0.6645  16.67$  5.41$  10.4$
|186>   Q  -1.3290  17.31$  5.63$  10.86$
|187>   Q  0.6645  18.37$  4$  11.43$
|188>   Q  0.6645  19.31$  3.09$  12.22$
|189>   Q  -1.3290  18.59$  3.27$  11.84$
|190>   Q  0.6645  15.31$  16.35$  3.42$
|191>   Q  0.6645  16.36$  15.19$  3.55$
|192>   Q  -1.3290  16.01$  15.89$  3.2$
|193>   Q  0.6645  19.31$  4.46$  8.28$
|194>   Q  0.6645  18.7$  5.4$  9.39$
|195>   Q  -1.3290  19.28$  5.13$  8.85$
|196>   Q  0.6645  12.74$  12.5$  -0.18$
|197>   Q  0.6645  13.12$  12.53$  1.35$
|198>   Q  -1.3290  12.69$  12.68$  0.65$
|199>   Q  0.6645  9.88$  4.04$  11.45$
|200>   Q  0.6645  11.35$  4.09$  10.98$
|201>   Q  -1.3290  10.52$  3.85$  10.96$
|202>   Q  0.6645  4.85$  9.61$  1.96$
|203>   Q  0.6645  5.51$  11.05$  1.79$
|204>   Q  -1.3290  5.04$  10.34$  1.57$
|205>   Q  0.6645  13.23$  10.52$  17.71$
|206>   Q  0.6645  12.46$  11.79$  18.08$
|207>   Q  -1.3290  12.98$  11.34$  17.62$
|208>   Q  0.6645  14.44$  10.75$  2.81$
|209>   Q  0.6645  13.21$  11.07$  3.72$
|210>   Q  -1.3290  13.81$  11.22$  3.12$
|211>   Q  0.6645  5.8$  7.49$  7.23$
|212>   Q  0.6645  7.02$  8.1$  7.85$
|213>   Q  -1.3290  6.22$  7.79$  7.85$
|214>   Q  0.6645  17.73$  17.33$  3.82$
|215>   Q  0.6645  17.78$  18.83$  3.47$
|216>   Q  -1.3290  17.89$  18.14$  3.96$
|217>   Q  0.6645  8.66$  6.72$  5.37$
|218>   Q  0.6645  9.5$  7.71$  5.93$
|219>   Q  -1.3290  9.32$  7.18$  5.35$
|220>   Q  0.6645  6.64$  5.5$  6.21$
|221>   Q  0.6645  7.58$  4.61$  5.41$
|222>   Q  -1.3290  7.37$  5.25$  5.91$
|223>   Q  0.6645  5.34$  14.66$  15.31$
|224>   Q  0.6645  4.04$  14.8$  14.42$
|225>   Q  -1.3290  4.81$  14.5$  14.66$
|226>   Q  0.6645  12.38$  6.06$  9$
|227>   Q  0.6645  13.15$  5.98$  7.56$
|228>   Q  -1.3290  12.51$  6.13$  8.12$
|229>   Q  0.6645  1.01$  12.01$  11.81$
|230>   Q  0.6645  2.16$  12.73$  11.14$
|231>   Q  -1.3290  1.34$  12.59$  11.3$
|232>   Q  0.6645  10.49$  18.4$  18.41$
|233>   Q  0.6645  10.8$  17.45$  17.3$
|234>   Q  -1.3290  10.3$  17.91$  17.79$
|235>   Q  0.6645  10.86$  18.64$  10.55$
|236>   Q  0.6645  10.5$  20.06$  10.2$
|237>   Q  -1.3290  10.91$  19.47$  10.64$
|238>   Q  0.6645  13.25$  10.53$  19.8$
|239>   Q  0.6645  14.2$  10.26$  20.89$
|240>   Q  -1.3290  13.7$  10.75$  20.42$
|241>   Q  0.6645  13.91$  5.32$  17.62$
|242>   Q  0.6645  12.88$  5.89$  18.64$
|243>   Q  -1.3290  13.14$  5.66$  17.89$
|244>   Q  0.6645  6.89$  4.81$  19.91$
|245>   Q  0.6645  8.14$  4.82$  20.6$
|246>   Q  -1.3290  7.4$  4.54$  20.46$
|247>   Q  0.6645  8.21$  14.81$  4.53$
|248>   Q  0.6645  7.46$  15.62$  3.46$
|249>   Q  -1.3290  7.71$  14.91$  3.87$
|250>   Q  0.6645  9.19$  10.75$  17.06$
|251>   Q  0.6645  10$  11.86$  17.68$
|252>   Q  -1.3290  9.47$  11.52$  17.11$
|253>   Q  0.6645  4.56$  2.08$  17$
|254>   Q  0.6645  5.47$  3.25$  17.52$
|255>   Q  -1.3290  5.04$  2.49$  17.57$
|256>   Q  0.6645  15.29$  11.74$  19.59$
|257>   Q  0.6645  15.61$  12.7$  18.54$
|258>   Q  -1.3290  15.72$  12$  18.94$
|259>   Q  0.6645  18.8$  11.55$  5.81$
|260>   Q  0.6645  19.47$  12.86$  5.91$
|261>   Q  -1.3290  19.45$  12.04$  5.8$
|262>   Q  0.6645  2.5$  16.5$  11.21$
|263>   Q  0.6645  3.98$  16.57$  10.75$
|264>   Q  -1.3290  3.31$  16.33$  11.21$
|265>   Q  0.6645  17.07$  10.44$  15.99$
|266>   Q  0.6645  17.87$  10.66$  17.3$
|267>   Q  -1.3290  17.59$  10.23$  16.64$
|268>   Q  0.6645  2.58$  13.14$  15.45$
|269>   Q  0.6645  1.64$  11.83$  15.22$
|270>   Q  -1.3290  1.96$  12.62$  15.07$
|271>   Q  0.6645  0.93$  7.91$  18.27$
|272>   Q  0.6645  2.17$  8.73$  18.69$
|273>   Q  -1.3290  1.52$  8.5$  18.18$
|274>   Q  0.6645  3.89$  17.12$  14.23$
|275>   Q  0.6645  3.38$  16.82$  15.75$
|276>   Q  -1.3290  3.34$  16.92$  14.89$
|277>   Q  0.6645  19.18$  15.86$  15.45$
|278>   Q  0.6645  20.55$  16.5$  16$
|279>   Q  -1.3290  20.05$  16.08$  15.45$
|280>   Q  0.6645  5.23$  9.27$  4.51$
|281>   Q  0.6645  3.88$  9.27$  3.98$
|282>   Q  -1.3290  4.6$  8.93$  4.16$
|283>   Q  0.6645  17.68$  17.36$  7.08$
|284>   Q  0.6645  17.06$  17.68$  5.7$
|285>   Q  -1.3290  17.05$  17.55$  6.54$
|286>   Q  0.6645  10.37$  11.13$  3.03$
|287>   Q  0.6645  11.08$  12.51$  2.83$
|288>   Q  -1.3290  10.8$  11.82$  3.24$
|289>   Q  0.6645  13.83$  19.78$  12.67$
|290>   Q  0.6645  14.6$  18.38$  12.36$
|291>   Q  -1.3290  14.48$  19.25$  12.43$
|292>   Q  0.6645  6.6$  8.54$  1.16$
|293>   Q  0.6645  7.69$  8.53$  0.05$
|294>   Q  -1.3290  7.37$  8.59$  0.84$
|295>   Q  0.6645  14.75$  16.31$  11.21$
|296>   Q  0.6645  16.06$  17.09$  10.73$
|297>   Q  -1.3290  15.2$  16.98$  10.87$
|298>   Q  0.6645  19.93$  9$  8.89$
|299>   Q  0.6645  20.15$  10.62$  8.88$
|300>   Q  -1.3290  20.17$  9.81$  9.16$
|301>   Q  0.6645  5.89$  7.85$  15.44$
|302>   Q  0.6645  5.22$  8.91$  16.43$
|303>   Q  -1.3290  5.64$  8.16$  16.21$
|304>   Q  0.6645  1.93$  3.57$  10.5$
|305>   Q  0.6645  0.42$  3.28$  10.9$
|306>   Q  -1.3290  1.12$  3.27$  10.41$
|307>   Q  0.6645  11.51$  15.56$  19.98$
|308>   Q  0.6645  10.57$  15.89$  18.86$
|309>   Q  -1.3290  11.16$  15.44$  19.23$
|310>   Q  0.6645  3.66$  16.18$  4.01$
|311>   Q  0.6645  4.9$  15.39$  4.5$
|312>   Q  -1.3290  4.46$  15.91$  3.95$
|313>   Q  0.6645  8.9$  13.4$  19.59$
|314>   Q  0.6645  8.41$  12.84$  18.28$
|315>   Q  -1.3290  8.42$  13.42$  18.88$
|316>   Q  0.6645  19.17$  15.25$  7.85$
|317>   Q  0.6645  18.08$  15.44$  8.85$
|318>   Q  -1.3290  18.4$  15.13$  8.16$
|319>   Q  0.6645  6.72$  13.4$  19.6$
|320>   Q  0.6645  5.43$  13.76$  20.4$
|321>   Q  -1.3290  6.1$  13.26$  20.13$
|322>   Q  0.6645  7.33$  13.9$  12.54$
|323>   Q  0.6645  7.79$  15.35$  12.13$
|324>   Q  -1.3290  7.82$  14.57$  12.53$
|325>   Q  0.6645  3.28$  13.74$  9.21$
|326>   Q  0.6645  3.11$  14.78$  8.06$
|327>   Q  -1.3290  2.99$  14.03$  8.45$
|328>   Q  0.6645  6.08$  1.86$  11.03$
|329>   Q  0.6645  6.22$  2.13$  9.47$
|330>   Q  -1.3290  5.87$  1.87$  10.21$
|331>   Q  0.6645  3.72$  12.05$  4.54$
|332>   Q  0.6645  2.37$  11.77$  5.07$
|333>   Q  -1.3290  3.02$  11.68$  4.52$
|334>   Q  0.6645  0.45$  9.08$  9.18$
|335>   Q  0.6645  1.52$  8.03$  9.18$
|336>   Q  -1.3290  1.07$  8.61$  9.53$
|337>   Q  0.6645  1.53$  10.15$  6.47$
|338>   Q  0.6645  2.98$  10$  7.06$
|339>   Q  -1.3290  2.22$  9.72$  6.78$
|340>   Q  0.6645  20.99$  15.45$  6.58$
|341>   Q  0.6645  21.42$  14.34$  7.52$
|342>   Q  -1.3290  21.07$  14.65$  6.82$
|343>   Q  0.6645  4.45$  8.78$  19.52$
|344>   Q  0.6645  3.47$  7.92$  20.22$
|345>   Q  -1.3290  3.95$  8.11$  19.6$
|346>   Q  0.6645  16.32$  15.43$  1.35$
|347>   Q  0.6645  17.13$  14.34$  0.98$
|348>   Q  -1.3290  16.58$  14.89$  0.81$
|349>   Q  0.6645  12.6$  16.49$  16.04$
|350>   Q  0.6645  11.2$  16.5$  15.28$
|351>   Q  -1.3290  11.81$  16.82$  15.77$
|352>   Q  0.6645  15.04$  8.5$  18.76$
|353>   Q  0.6645  15.36$  9.88$  18.23$
|354>   Q  -1.3290  14.91$  9.18$  18.29$
|355>   Q  0.6645  20.22$  7.62$  7.05$
|356>   Q  0.6645  19.2$  6.93$  8.03$
|357>   Q  -1.3290  19.59$  7.59$  7.67$
|358>   Q  0.6645  7.2$  1.76$  13.34$
|359>   Q  0.6645  7.6$  3$  12.62$
|360>   Q  -1.3290  7.19$  2.29$  12.73$
|361>   Q  0.6645  11.25$  8.81$  1.8$
|362>   Q  0.6645  12.17$  7.49$  1.73$
|363>   Q  -1.3290  11.86$  8.25$  1.49$
|364>   Q  0.6645  19.06$  8.81$  16.11$
|365>   Q  0.6645  19.56$  7.44$  16.09$
|366>   Q  -1.3290  19.59$  8.22$  15.89$
|367>   Q  0.6645  7$  20.17$  11.71$
|368>   Q  0.6645  8.27$  20.24$  12.31$
|369>   Q  -1.3290  7.58$  19.86$  12.19$
|370>   Q  0.6645  3.43$  3.87$  4.23$
|371>   Q  0.6645  4.26$  5.06$  4.93$
|372>   Q  -1.3290  3.62$  4.67$  4.52$
|373>   Q  0.6645  11.09$  10.38$  21.8$
|374>   Q  0.6645  9.97$  9.77$  21.01$
|375>   Q  -1.3290  10.35$  10.38$  21.41$
|376>   Q  0.6645  15.14$  19.95$  10.42$
|377>   Q  0.6645  15.18$  20.19$  8.97$
|378>   Q  -1.3290  15.22$  20.44$  9.75$
|379>   Q  0.6645  4.18$  6.69$  16.6$
|380>   Q  0.6645  2.85$  6.35$  17.34$
|381>   Q  -1.3290  3.44$  6.24$  16.73$
|382>   Q  0.6645  13.31$  4.75$  10.86$
|383>   Q  0.6645  12.37$  5.81$  11.6$
|384>   Q  -1.3290  12.87$  5.5$  10.96$
|385>   Q  0.6645  7.25$  5.39$  1.4$
|386>   Q  0.6645  7.95$  6.69$  1.88$
|387>   Q  -1.3290  7.88$  5.87$  1.74$
|388>   Q  0.6645  15.07$  12.55$  3.68$
|389>   Q  0.6645  15.33$  13.48$  4.88$
|390>   Q  -1.3290  15.54$  13$  4.22$
|391>   Q  0.6645  8.61$  16.24$  15.26$
|392>   Q  0.6645  8.57$  17.04$  16.65$
|393>   Q  -1.3290  8.26$  16.67$  15.92$
|394>   Q  0.6645  9.83$  5$  19.61$
|395>   Q  0.6645  10.15$  4.88$  21.13$
|396>   Q  -1.3290  9.9$  5.28$  20.44$
|397>   Q  0.6645  8.17$  15.78$  20.54$
|398>   Q  0.6645  8.56$  15.32$  19.14$
|399>   Q  -1.3290  8.38$  15.9$  19.77$
|400>   Q  0.6645  9.06$  5.78$  15.88$
|401>   Q  0.6645  7.94$  5.72$  14.9$
|402>   Q  -1.3290  8.49$  6.11$  15.38$
|403>   Q  0.6645  9.43$  18.21$  5.66$
|404>   Q  0.6645  10.06$  19.21$  4.65$
|405>   Q  -1.3290  9.64$  18.5$  4.89$
|406>   Q  0.6645  17.3$  14.5$  15.48$
|407>   Q  0.6645  16.87$  15.46$  16.58$
|408>   Q  -1.3290  17.2$  15.24$  15.84$
|409>   Q  0.6645  16.8$  11.88$  6.76$
|410>   Q  0.6645  16.39$  11.56$  5.27$
|411>   Q  -1.3290  16.74$  11.39$  6.05$
|412>   Q  0.6645  10.69$  19.17$  15.55$
|413>   Q  0.6645  10.77$  20.64$  16.2$
|414>   Q  -1.3290  10.74$  20.06$  15.57$
|415>   Q  0.6645  17.31$  16.33$  13.77$
|416>   Q  0.6645  18.63$  16.17$  13.1$
|417>   Q  -1.3290  17.9$  16.56$  13.24$
|418>   Q  0.6645  14.12$  8.37$  16.29$
|419>   Q  0.6645  13.27$  7.13$  16.75$
|420>   Q  -1.3290  13.59$  7.69$  16.19$
|421>   Q  0.6645  7.69$  0.78$  15.43$
|422>   Q  0.6645  6.82$  1.63$  16.42$
|423>   Q  -1.3290  7.07$  1.31$  15.65$
|424>   Q  0.6645  18.36$  17.44$  9.93$
|425>   Q  0.6645  18.14$  16.61$  11.17$
|426>   Q  -1.3290  17.98$  16.85$  10.39$
|427>   Q  0.6645  11.14$  11.75$  19.99$
|428>   Q  0.6645  11.55$  13.25$  19.5$
|429>   Q  -1.3290  11.33$  12.41$  19.44$
|430>   Q  0.6645  4.78$  8.81$  9.46$
|431>   Q  0.6645  3.39$  9.47$  9.78$
|432>   Q  -1.3290  4.11$  8.98$  9.94$
|433>   Q  0.6645  20.01$  9.5$  12.53$
|434>   Q  0.6645  19.78$  9.34$  11.07$
|435>   Q  -1.3290  19.55$  9.28$  11.85$
|436>   Q  0.6645  14.62$  4.54$  14.01$
|437>   Q  0.6645  13.05$  4.29$  14.14$
|438>   Q  -1.3290  13.85$  4.13$  13.89$
|439>   Q  0.6645  2.21$  9.37$  16.39$
|440>   Q  0.6645  2.15$  9.08$  14.87$
|441>   Q  -1.3290  2.23$  9.57$  15.55$
|442>   Q  0.6645  3.56$  7.89$  11.4$
|443>   Q  0.6645  3.05$  7.22$  12.72$
|444>   Q  -1.3290  3.47$  7.26$  11.99$
|445>   Q  0.6645  12.7$  16.97$  3.9$
|446>   Q  0.6645  13.91$  17.93$  3.74$
|447>   Q  -1.3290  13.5$  17.24$  4.02$
|448>   Q  0.6645  12.21$  14.7$  14$
|449>   Q  0.6645  13.63$  14.55$  13.34$
|450>   Q  -1.3290  12.93$  14.31$  13.77$
|451>   Q  0.6645  16.61$  12.01$  14.72$
|452>   Q  0.6645  18.13$  12.41$  14.42$
|453>   Q  -1.3290  17.28$  12.53$  14.54$
|454>   Q  0.6645  4.09$  19.31$  9.22$
|455>   Q  0.6645  5.2$  18.36$  8.96$
|456>   Q  -1.3290  4.88$  19.11$  9.09$
|457>   Q  0.6645  5.93$  6.2$  8.94$
|458>   Q  0.6645  5.94$  4.63$  8.71$
|459>   Q  -1.3290  5.83$  5.39$  9.15$
|460>   Q  0.6645  1.34$  9.5$  11.36$
|461>   Q  0.6645  2.41$  10.04$  12.38$
|462>   Q  -1.3290  1.63$  9.85$  12.12$
|463>   Q  0.6645  15.69$  16.93$  13.2$
|464>   Q  0.6645  15.17$  17.18$  14.67$
|465>   Q  -1.3290  15.16$  16.86$  13.86$
|466>   Q  0.6645  8.85$  2.93$  6.22$
|467>   Q  0.6645  7.93$  2.63$  5.15$
|468>   Q  -1.3290  8.31$  2.43$  5.83$
|469>   Q  0.6645  7.76$  9.25$  19.56$
|470>   Q  0.6645  9.12$  8.47$  19.31$
|471>   Q  -1.3290  8.38$  8.66$  19.74$
|472>   Q  0.6645  6.27$  20.19$  9.76$
|473>   Q  0.6645  6.36$  21.7$  10.09$
|474>   Q  -1.3290  6.64$  20.89$  10.07$
|475>   Q  0.6645  5.87$  11.04$  19.95$
|476>   Q  0.6645  5.54$  10.29$  21.12$
|477>   Q  -1.3290  5.69$  10.35$  20.32$
|478>   Q  0.6645  4.9$  11.11$  17.64$
|479>   Q  0.6645  5.49$  11.83$  16.43$
|480>   Q  -1.3290  5.43$  11.2$  17.01$
|481>   Q  0.6645  7.55$  17.77$  11.44$
|482>   Q  0.6645  8.69$  17.42$  10.58$
|483>   Q  -1.3290  7.99$  17.26$  10.98$
|484>   Q  0.6645  4.98$  17.28$  5.63$
|485>   Q  0.6645  4.65$  17.01$  7.05$
|486>   Q  -1.3290  5.17$  17.15$  6.4$
|487>   Q  0.6645  16.85$  13.44$  12.71$
|488>   Q  0.6645  17.14$  12.51$  11.41$
|489>   Q  -1.3290  17.04$  13.23$  11.86$
|490>   Q  0.6645  9.56$  0.4$  13.4$
|491>   Q  0.6645  9.54$  -0.46$  14.69$
|492>   Q  -1.3290  9.21$  0.07$  14.11$
|493>   Q  0.6645  15.56$  2.35$  6.82$
|494>   Q  0.6645  14.12$  3.09$  6.92$
|495>   Q  -1.3290  14.78$  2.56$  7.17$
|496>   Q  0.6645  5.43$  2.65$  7.45$
|497>   Q  0.6645  6.96$  2.66$  7.22$
|498>   Q  -1.3290  6.25$  2.92$  7.56$
|499>   Q  0.6645  6.1$  5.01$  16.47$
|500>   Q  0.6645  6.26$  5.75$  17.86$
|501>   Q  -1.3290  6.24$  5.09$  17.31$
|502>   Q  0.6645  13.62$  3.9$  5.02$
|503>   Q  0.6645  12.46$  4.14$  6.03$
|504>   Q  -1.3290  13.27$  4.12$  5.79$
|505>   Q  0.6645  9.78$  3.77$  17.88$
|506>   Q  0.6645  8.51$  4.65$  17.85$
|507>   Q  -1.3290  9.34$  4.51$  17.87$
|508>   Q  0.6645  11.76$  8.27$  4.63$
|509>   Q  0.6645  13$  8.78$  3.94$
|510>   Q  -1.3290  12.38$  8.81$  4.52$
|511>   Q  0.6645  10.74$  15.83$  3.31$
|512>   Q  0.6645  10.5$  17.08$  4.15$
|513>   Q  -1.3290  10.94$  16.38$  3.9$
|514>   Q  0.6645  11.97$  8.11$  18.6$
|515>   Q  0.6645  11.31$  9.17$  17.66$
|516>   Q  -1.3290  11.44$  8.73$  18.38$
|517>   Q  0.6645  17.03$  9.51$  6.18$
|518>   Q  0.6645  17.92$  8.46$  7.02$
|519>   Q  -1.3290  17.23$  8.8$  6.62$
|520>   Q  0.6645  7.5$  8.5$  16.93$
|521>   Q  0.6645  8.81$  8.3$  16.32$
|522>   Q  -1.3290  8.25$  8.72$  16.74$
|523>   Q  0.6645  19.98$  19.18$  9.35$
|524>   Q  0.6645  18.79$  19.52$  8.52$
|525>   Q  -1.3290  19.33$  19.01$  8.85$
|526>   Q  0.6645  4.63$  2.57$  13.64$
|527>   Q  0.6645  3.87$  3.05$  12.5$
|528>   Q  -1.3290  3.94$  2.68$  13.25$
|529>   Q  0.6645  7.19$  17.7$  7.2$
|530>   Q  0.6645  8.47$  17.79$  8.16$
|531>   Q  -1.3290  8.05$  17.73$  7.42$
|532>   Q  0.6645  12.68$  5.42$  3.37$
|533>   Q  0.6645  11.69$  5.38$  2.2$
|534>   Q  -1.3290  12.29$  5.74$  2.69$
|535>   Q  0.6645  17.56$  2.62$  10.26$
|536>   Q  0.6645  16.14$  3.04$  9.89$
|537>   Q  -1.3290  16.94$  2.91$  9.74$
|538>   Q  0.6645  11.04$  1.78$  15.56$
|539>   Q  0.6645  10.74$  1.92$  14.16$
|540>   Q  -1.3290  11.02$  2.19$  14.87$
|541>   Q  0.6645  19.04$  15.41$  4.99$
|542>   Q  0.6645  18.15$  14.84$  6.11$
|543>   Q  -1.3290  18.42$  14.92$  5.3$
|544>   Q  0.6645  9.13$  14.28$  2.53$
|545>   Q  0.6645  9.85$  13.87$  1.3$
|546>   Q  -1.3290  9.8$  14.26$  2.02$
|547>   Q  0.6645  20.55$  11.81$  4.01$
|548>   Q  0.6645  19.59$  11.71$  2.8$
|549>   Q  -1.3290  20.34$  11.59$  3.21$
|550>   Q  0.6645  15.26$  19.04$  15.97$
|551>   Q  0.6645  16.76$  19.41$  15.76$
|552>   Q  -1.3290  16.11$  18.96$  16.01$
|553>   Q  0.6645  15.39$  7.6$  2.71$
|554>   Q  0.6645  14.06$  7.98$  2.05$
|555>   Q  -1.3290  14.68$  8.03$  2.61$
|556>   Q  0.6645  7.23$  13.07$  2.71$
|557>   Q  0.6645  6.12$  13.21$  1.81$
|558>   Q  -1.3290  6.66$  12.76$  2.22$
|559>   Q  0.6645  17.3$  4.9$  15.43$
|560>   Q  0.6645  17.81$  3.56$  15.17$
|561>   Q  -1.3290  17.85$  4.31$  15.52$
|562>   Q  0.6645  15.6$  19.05$  7.19$
|563>   Q  0.6645  14.05$  19.15$  7.37$
|564>   Q  -1.3290  14.84$  19.44$  7.3$
|565>   Q  0.6645  11.57$  9$  6.59$
|566>   Q  0.6645  11.77$  7.87$  7.65$
|567>   Q  -1.3290  11.35$  8.46$  7.2$
|568>   Q  0.6645  16.27$  4.42$  17.41$
|569>   Q  0.6645  16.23$  5.96$  17.64$
|570>   Q  -1.3290  15.91$  5.16$  17.59$
|571>   Q  0.6645  16.12$  6.7$  13.94$
|572>   Q  0.6645  14.84$  6.87$  14.84$
|573>   Q  -1.3290  15.54$  6.49$  14.52$
|574>   Q  0.6645  19.05$  18.31$  13.72$
|575>   Q  0.6645  18.54$  19.76$  13.7$
|576>   Q  -1.3290  19.09$  19.16$  13.85$
|577>   Q  0.6645  6.49$  17.26$  14.45$
|578>   Q  0.6645  6.27$  18.57$  13.78$
|579>   Q  -1.3290  6.06$  17.79$  13.98$
|580>   Q  0.6645  4$  4.59$  10.65$
|581>   Q  0.6645  3.01$  5.43$  11.53$
|582>   Q  -1.3290  3.29$  4.71$  11.11$
|583>   Q  0.6645  17.19$  12.69$  2.84$
|584>   Q  0.6645  18.51$  13.31$  3.42$
|585>   Q  -1.3290  18.02$  12.92$  2.8$
|586>   Q  0.6645  11.13$  0.68$  12.12$
|587>   Q  0.6645  10.62$  2.05$  11.7$
|588>   Q  -1.3290  10.7$  1.38$  12.21$
|589>   Q  0.6645  2.05$  6.14$  8.3$
|590>   Q  0.6645  3.49$  6.47$  8.9$
|591>   Q  -1.3290  2.8$  6.53$  8.38$
|592>   Q  0.6645  20.82$  14.6$  10.35$
|593>   Q  0.6645  22.19$  13.96$  9.96$
|594>   Q  -1.3290  21.52$  14.48$  9.86$
|595>   Q  0.6645  3.09$  13.2$  17.76$
|596>   Q  0.6645  3.96$  14.29$  17.17$
|597>   Q  -1.3290  3.25$  13.89$  17.29$
|598>   Q  0.6645  19.88$  17.27$  5.83$
|599>   Q  0.6645  20.01$  17.65$  7.42$
|600>   Q  -1.3290  19.97$  17.15$  6.7$
|601>   Q  0.6645  19.43$  12.72$  18.37$
|602>   Q  0.6645  18.95$  12.67$  16.97$
|603>   Q  -1.3290  19.32$  12.33$  17.65$
|604>   Q  0.6645  4.64$  10.88$  13.05$
|605>   Q  0.6645  3.72$  10.38$  14.01$
|606>   Q  -1.3290  4.16$  10.29$  13.36$
|607>   Q  0.6645  11.75$  20.56$  13.73$
|608>   Q  0.6645  11.87$  20.34$  12.19$
|609>   Q  -1.3290  12.11$  20.61$  12.96$
|610>   Q  0.6645  5.48$  12.56$  5.59$
|611>   Q  0.6645  6.07$  13.25$  4.32$
|612>   Q  -1.3290  5.51$  13.15$  4.95$
|613>   Q  0.6645  10.55$  3.43$  4.53$
|614>   Q  0.6645  10.27$  4.95$  4.37$
|615>   Q  -1.3290  10.45$  4.23$  4.79$
|616>   Q  0.6645  2.88$  3.46$  14.76$
|617>   Q  0.6645  2.8$  4.54$  15.85$
|618>   Q  -1.3290  2.56$  3.87$  15.43$
|619>   Q  0.6645  16.78$  9.76$  1.65$
|620>   Q  0.6645  17.04$  11.15$  1.15$
|621>   Q  -1.3290  16.58$  10.52$  1.43$
|622>   Q  0.6645  5.61$  15.81$  17.62$
|623>   Q  0.6645  6.7$  15.06$  16.97$
|624>   Q  -1.3290  5.9$  15.19$  17.14$
|625>   Q  0.6645  17.23$  8.35$  17.74$
|626>   Q  0.6645  17.96$  7.6$  18.69$
|627>   Q  -1.3290  17.41$  7.66$  18.14$
|628>   Q  0.6645  8.64$  20.79$  9.75$
|629>   Q  0.6645  9.77$  21.53$  8.82$
|630>   Q  -1.3290  9.28$  20.88$  9.14$
|631>   Q  0.6645  14.41$  3.4$  11.92$
|632>   Q  0.6645  13.96$  2.54$  10.67$
|633>   Q  -1.3290  14.08$  3.24$  11.15$
|634>   Q  0.6645  13.96$  14.98$  15.7$
|635>   Q  0.6645  13.99$  14.87$  17.26$
|636>   Q  -1.3290  13.98$  15.27$  16.5$
|637>   Q  0.6645  0.48$  14.21$  12.6$
|638>   Q  0.6645  0.71$  13.85$  14.03$
|639>   Q  -1.3290  0.33$  14.23$  13.4$
|640>   Q  0.6645  4.04$  14.35$  11.23$
|641>   Q  0.6645  4.62$  12.87$  11.2$
|642>   Q  -1.3290  4.23$  13.56$  10.91$
|643>   Q  0.6645  5.47$  6.91$  19.67$
|644>   Q  0.6645  6.99$  7.19$  19.33$
|645>   Q  -1.3290  6.28$  6.71$  19.49$
|646>   Q  0.6645  12.45$  16.79$  11.9$
|647>   Q  0.6645  12.66$  17.45$  13.23$
|648>   Q  -1.3290  12.2$  17.11$  12.64$
|649>   Q  0.6645  18.89$  14.42$  11.69$
|650>   Q  0.6645  20.1$  14.4$  12.44$
|651>   Q  -1.3290  19.62$  14.67$  11.84$
|652>   Q  0.6645  2.97$  11.6$  19.49$
|653>   Q  0.6645  2.04$  11.22$  18.32$
|654>   Q  -1.3290  2.77$  11.43$  18.7$
|655>   Q  0.6645  12.06$  1.02$  9.02$
|656>   Q  0.6645  10.89$  1.72$  8.26$
|657>   Q  -1.3290  11.36$  1.07$  8.5$
|658>   Q  0.6645  15.21$  8.79$  6.8$
|659>   Q  0.6645  13.75$  8.44$  6.21$
|660>   Q  -1.3290  14.37$  8.61$  6.81$
|661>   Q  0.6645  14.3$  15.1$  19.59$
|662>   Q  0.6645  13.07$  14.79$  18.87$
|663>   Q  -1.3290  13.85$  14.67$  19.05$
|664>   Q  0.6645  6.4$  16.43$  9.84$
|665>   Q  0.6645  5.52$  15.69$  8.8$
|666>   Q  -1.3290  5.69$  16.29$  9.37$
|667>   Q  0.6645  9.7$  8.62$  3.55$
|668>   Q  0.6645  8.99$  9.1$  2.24$
|669>   Q  -1.3290  9.63$  9$  2.8$
|670>   Q  0.6645  1.27$  6.78$  14.25$
|671>   Q  0.6645  2.53$  6.86$  15$
|672>   Q  -1.3290  2.03$  7.09$  14.37$
|673>   Q  0.6645  17.26$  13.45$  8.28$
|674>   Q  0.6645  16.98$  12.17$  9.16$
|675>   Q  -1.3290  16.82$  12.78$  8.56$
|676>   Q  0.6645  22.04$  10.19$  13.35$
|677>   Q  0.6645  21.08$  9.56$  14.63$
|678>   Q  -1.3290  21.34$  10.04$  13.92$
|679> *
|680> 
|681>                          ****END OF INPUT****
================================================================================

                     *******************************
                     * Energy+Gradient Calculation *
                     *******************************

---------------------------------
CARTESIAN COORDINATES (ANGSTROEM)
---------------------------------
  C      9.550000   10.280000   11.840000
  H      8.640000   10.930000   11.790000
  H     10.190000   10.670000   12.570000
  C     10.280000   10.100000   10.510000
  H     11.000000    9.330000   10.760000
  H      9.680000    9.860000    9.670000
  C     11.080000   11.310000    9.960000
  H     10.420000   12.210000    9.910000
  H     11.190000   11.120000    8.910000
  C     12.380000   11.700000   10.650000
  H     13.000000   10.880000   11.000000
  H     12.030000   12.100000   11.600000
  O     13.110000   12.740000   10.040000
  H     13.440000   12.420000    9.170000
  O      9.000000    9.050000   12.130000
  H      8.340000    9.120000   12.880000
  O      8.210000    6.600000   10.740000
  H      8.350000    7.520000   10.850000
  H      8.550000    6.350000    9.810000
  O     12.800000    9.180000   12.810000
  H     12.570000    9.840000   13.440000
  H     12.300000    8.350000   13.020000
  O     12.070000   15.020000    9.090000
  H     12.610000   14.330000    9.580000
  H     12.610000   15.210000    8.280000
  O     15.120000    9.130000   11.290000
  H     14.920000    8.530000   10.540000
  H     14.300000    9.230000   11.850000
  O      7.340000   11.590000    8.550000
  H      7.600000   11.720000    7.620000
  H      7.790000   12.380000    8.800000
  O     14.510000   16.760000    8.060000
  H     15.290000   16.950000    7.510000
  H     14.700000   17.020000    8.950000
  O     17.330000   10.910000   10.880000
  H     18.120000   10.470000   11.090000
  H     16.640000   10.280000   11.080000
  O     16.960000    7.730000   12.600000
  H     16.140000    7.950000   12.130000
  H     17.650000    8.400000   12.400000
  O      8.220000   12.520000    6.160000
  H      8.180000   13.470000    6.340000
  H      9.170000   12.410000    6.110000
  O      6.290000    8.410000   13.690000
  H      6.310000    7.830000   12.950000
  H      5.530000    8.960000   13.460000
  O      8.610000    4.650000   12.710000
  H      9.200000    4.830000   13.450000
  H      8.400000    5.470000   12.320000
  O     15.180000    6.740000    9.250000
  H     14.460000    6.210000    9.730000
  H     14.840000    7.180000    8.470000
  O     14.510000   14.150000    6.530000
  H     13.600000   14.400000    6.300000
  H     14.830000   14.880000    7.050000
  O      5.870000   12.300000   13.060000
  H      6.630000   11.990000   13.610000
  H      5.470000   13.050000   13.490000
  O     11.390000   11.790000    6.120000
  H     11.490000   11.460000    5.260000
  H     12.310000   11.790000    6.510000
  O     12.300000   17.940000    6.720000
  H     12.410000   17.770000    5.820000
  H     12.970000   17.460000    7.180000
  O      9.010000    6.140000    8.190000
  H      8.560000    5.720000    7.460000
  H      9.820000    6.550000    7.860000
  O     12.990000   11.420000   14.670000
  H     12.800000   12.320000   14.380000
  H     12.970000   11.450000   15.630000
  O     11.090000    9.440000   15.850000
  H     11.860000    9.040000   15.490000
  H     11.010000   10.230000   15.330000
  O      4.470000   11.430000    7.210000
  H      5.260000   11.250000    7.740000
  H      4.150000   12.330000    7.610000
  O     11.350000    6.690000   12.870000
  H     11.400000    6.240000   13.740000
  H     10.520000    7.190000   12.850000
  O     11.840000   14.560000    6.100000
  H     11.560000   13.670000    5.900000
  H     11.870000   15.100000    5.280000
  O      8.370000   13.890000    9.740000
  H      8.610000   13.670000   10.650000
  H      8.810000   14.700000    9.650000
  O      7.940000   11.170000   14.730000
  H      7.550000   10.590000   15.430000
  H      8.610000   11.770000   15.300000
  O      6.850000    9.930000    5.540000
  H      7.270000   10.770000    5.370000
  H      7.330000    9.560000    6.280000
  O     13.900000   11.560000    6.880000
  H     14.530000   12.300000    6.860000
  H     14.410000   10.740000    6.960000
  O      5.790000   14.570000    7.730000
  H      6.050000   14.530000    6.840000
  H      6.460000   14.080000    8.240000
  O     15.690000   10.450000   14.530000
  H     15.740000    9.550000   14.210000
  H     14.780000   10.720000   14.440000
  O      5.750000    5.500000   12.190000
  H      6.260000    5.610000   11.370000
  H      4.910000    5.900000   12.010000
  O      8.470000    9.220000    7.650000
  H      9.400000    9.130000    7.860000
  H      8.200000   10.010000    8.130000
  O     14.470000   14.570000   11.490000
  H     14.180000   13.850000   10.920000
  H     15.390000   14.370000   11.600000
  O     10.500000   17.260000    9.510000
  H     11.030000   16.480000    9.450000
  H     10.920000   17.740000    8.810000
  Q     20.310000   11.730000   13.960000
  Q     20.600000   13.270000   14.080000
  Q     20.120000   12.570000   14.040000
  Q     12.230000    7.550000   21.060000
  Q     11.370000    6.520000   20.390000
  Q     12.100000    6.840000   20.660000
  Q      4.650000    7.060000    5.460000
  Q      4.050000    6.260000    6.620000
  Q      4.670000    6.470000    6.070000
  Q     19.680000    7.810000    4.150000
  Q     18.510000    7.650000    5.110000
  Q     18.970000    7.460000    4.440000
  Q      0.220000   12.750000    6.530000
  Q      1.840000   12.790000    6.850000
  Q      1.060000   12.520000    6.520000
  Q      9.530000   14.910000   13.380000
  Q     10.580000   16.000000   13.330000
  Q     10.150000   15.370000   13.710000
  Q      5.250000    6.530000    1.670000
  Q      4.550000    7.510000    2.690000
  Q      4.800000    7.230000    1.930000
  Q     13.810000    1.880000   13.960000
  Q     13.690000    0.470000   13.390000
  Q     14.060000    1.100000   13.800000
  Q     13.400000   19.300000   17.410000
  Q     12.910000   19.100000   15.990000
  Q     13.330000   19.480000   16.580000
  Q     14.020000    1.650000    8.850000
  Q     14.220000    0.470000    9.950000
  Q     13.840000    1.160000    9.570000
  Q     10.000000   15.050000    6.420000
  Q      8.780000   15.910000    6.640000
  Q      9.180000   15.260000    6.340000
  Q     10.060000    3.660000    8.540000
  Q     10.240000    4.120000    7.040000
  Q     10.160000    3.550000    7.670000
  Q      6.070000    4.940000   13.790000
  Q      6.950000    3.840000   14.320000
  Q      6.450000    4.500000   14.400000
  Q      7.750000   17.730000    3.820000
  Q      6.370000   17.880000    3.300000
  Q      7.140000   17.550000    3.290000
  Q     11.410000    4.360000   15.490000
  Q     12.130000    5.570000   16.120000
  Q     11.720000    5.160000   15.510000
  Q     17.290000    6.280000   11.350000
  Q     16.670000    5.410000   10.400000
  Q     17.310000    5.630000   10.860000
  Q     18.370000    4.000000   11.430000
  Q     19.310000    3.090000   12.220000
  Q     18.590000    3.270000   11.840000
  Q     15.310000   16.350000    3.420000
  Q     16.360000   15.190000    3.550000
  Q     16.010000   15.890000    3.200000
  Q     19.310000    4.460000    8.280000
  Q     18.700000    5.400000    9.390000
  Q     19.280000    5.130000    8.850000
  Q     12.740000   12.500000   -0.180000
  Q     13.120000   12.530000    1.350000
  Q     12.690000   12.680000    0.650000
  Q      9.880000    4.040000   11.450000
  Q     11.350000    4.090000   10.980000
  Q     10.520000    3.850000   10.960000
  Q      4.850000    9.610000    1.960000
  Q      5.510000   11.050000    1.790000
  Q      5.040000   10.340000    1.570000
  Q     13.230000   10.520000   17.710000
  Q     12.460000   11.790000   18.080000
  Q     12.980000   11.340000   17.620000
  Q     14.440000   10.750000    2.810000
  Q     13.210000   11.070000    3.720000
  Q     13.810000   11.220000    3.120000
  Q      5.800000    7.490000    7.230000
  Q      7.020000    8.100000    7.850000
  Q      6.220000    7.790000    7.850000
  Q     17.730000   17.330000    3.820000
  Q     17.780000   18.830000    3.470000
  Q     17.890000   18.140000    3.960000
  Q      8.660000    6.720000    5.370000
  Q      9.500000    7.710000    5.930000
  Q      9.320000    7.180000    5.350000
  Q      6.640000    5.500000    6.210000
  Q      7.580000    4.610000    5.410000
  Q      7.370000    5.250000    5.910000
  Q      5.340000   14.660000   15.310000
  Q      4.040000   14.800000   14.420000
  Q      4.810000   14.500000   14.660000
  Q     12.380000    6.060000    9.000000
  Q     13.150000    5.980000    7.560000
  Q     12.510000    6.130000    8.120000
  Q      1.010000   12.010000   11.810000
  Q      2.160000   12.730000   11.140000
  Q      1.340000   12.590000   11.300000
  Q     10.490000   18.400000   18.410000
  Q     10.800000   17.450000   17.300000
  Q     10.300000   17.910000   17.790000
  Q     10.860000   18.640000   10.550000
  Q     10.500000   20.060000   10.200000
  Q     10.910000   19.470000   10.640000
  Q     13.250000   10.530000   19.800000
  Q     14.200000   10.260000   20.890000
  Q     13.700000   10.750000   20.420000
  Q     13.910000    5.320000   17.620000
  Q     12.880000    5.890000   18.640000
  Q     13.140000    5.660000   17.890000
  Q      6.890000    4.810000   19.910000
  Q      8.140000    4.820000   20.600000
  Q      7.400000    4.540000   20.460000
  Q      8.210000   14.810000    4.530000
  Q      7.460000   15.620000    3.460000
  Q      7.710000   14.910000    3.870000
  Q      9.190000   10.750000   17.060000
  Q     10.000000   11.860000   17.680000
  Q      9.470000   11.520000   17.110000
  Q      4.560000    2.080000   17.000000
  Q      5.470000    3.250000   17.520000
  Q      5.040000    2.490000   17.570000
  Q     15.290000   11.740000   19.590000
  Q     15.610000   12.700000   18.540000
  Q     15.720000   12.000000   18.940000
  Q     18.800000   11.550000    5.810000
  Q     19.470000   12.860000    5.910000
  Q     19.450000   12.040000    5.800000
  Q      2.500000   16.500000   11.210000
  Q      3.980000   16.570000   10.750000
  Q      3.310000   16.330000   11.210000
  Q     17.070000   10.440000   15.990000
  Q     17.870000   10.660000   17.300000
  Q     17.590000   10.230000   16.640000
  Q      2.580000   13.140000   15.450000
  Q      1.640000   11.830000   15.220000
  Q      1.960000   12.620000   15.070000
  Q      0.930000    7.910000   18.270000
  Q      2.170000    8.730000   18.690000
  Q      1.520000    8.500000   18.180000
  Q      3.890000   17.120000   14.230000
  Q      3.380000   16.820000   15.750000
  Q      3.340000   16.920000   14.890000
  Q     19.180000   15.860000   15.450000
  Q     20.550000   16.500000   16.000000
  Q     20.050000   16.080000   15.450000
  Q      5.230000    9.270000    4.510000
  Q      3.880000    9.270000    3.980000
  Q      4.600000    8.930000    4.160000
  Q     17.680000   17.360000    7.080000
  Q     17.060000   17.680000    5.700000
  Q     17.050000   17.550000    6.540000
  Q     10.370000   11.130000    3.030000
  Q     11.080000   12.510000    2.830000
  Q     10.800000   11.820000    3.240000
  Q     13.830000   19.780000   12.670000
  Q     14.600000   18.380000   12.360000
  Q     14.480000   19.250000   12.430000
  Q      6.600000    8.540000    1.160000
  Q      7.690000    8.530000    0.050000
  Q      7.370000    8.590000    0.840000
  Q     14.750000   16.310000   11.210000
  Q     16.060000   17.090000   10.730000
  Q     15.200000   16.980000   10.870000
  Q     19.930000    9.000000    8.890000
  Q     20.150000   10.620000    8.880000
  Q     20.170000    9.810000    9.160000
  Q      5.890000    7.850000   15.440000
  Q      5.220000    8.910000   16.430000
  Q      5.640000    8.160000   16.210000
  Q      1.930000    3.570000   10.500000
  Q      0.420000    3.280000   10.900000
  Q      1.120000    3.270000   10.410000
  Q     11.510000   15.560000   19.980000
  Q     10.570000   15.890000   18.860000
  Q     11.160000   15.440000   19.230000
  Q      3.660000   16.180000    4.010000
  Q      4.900000   15.390000    4.500000
  Q      4.460000   15.910000    3.950000
  Q      8.900000   13.400000   19.590000
  Q      8.410000   12.840000   18.280000
  Q      8.420000   13.420000   18.880000
  Q     19.170000   15.250000    7.850000
  Q     18.080000   15.440000    8.850000
  Q     18.400000   15.130000    8.160000
  Q      6.720000   13.400000   19.600000
  Q      5.430000   13.760000   20.400000
  Q      6.100000   13.260000   20.130000
  Q      7.330000   13.900000   12.540000
  Q      7.790000   15.350000   12.130000
  Q      7.820000   14.570000   12.530000
  Q      3.280000   13.740000    9.210000
  Q      3.110000   14.780000    8.060000
  Q      2.990000   14.030000    8.450000
  Q      6.080000    1.860000   11.030000
  Q      6.220000    2.130000    9.470000
  Q      5.870000    1.870000   10.210000
  Q      3.720000   12.050000    4.540000
  Q      2.370000   11.770000    5.070000
  Q      3.020000   11.680000    4.520000
  Q      0.450000    9.080000    9.180000
  Q      1.520000    8.030000    9.180000
  Q      1.070000    8.610000    9.530000
  Q      1.530000   10.150000    6.470000
  Q      2.980000   10.000000    7.060000
  Q      2.220000    9.720000    6.780000
  Q     20.990000   15.450000    6.580000
  Q     21.420000   14.340000    7.520000
  Q     21.070000   14.650000    6.820000
  Q      4.450000    8.780000   19.520000
  Q      3.470000    7.920000   20.220000
  Q      3.950000    8.110000   19.600000
  Q     16.320000   15.430000    1.350000
  Q     17.130000   14.340000    0.980000
  Q     16.580000   14.890000    0.810000
  Q     12.600000   16.490000   16.040000
  Q     11.200000   16.500000   15.280000
  Q     11.810000   16.820000   15.770000
  Q     15.040000    8.500000   18.760000
  Q     15.360000    9.880000   18.230000
  Q     14.910000    9.180000   18.290000
  Q     20.220000    7.620000    7.050000
  Q     19.200000    6.930000    8.030000
  Q     19.590000    7.590000    7.670000
  Q      7.200000    1.760000   13.340000
  Q      7.600000    3.000000   12.620000
  Q      7.190000    2.290000   12.730000
  Q     11.250000    8.810000    1.800000
  Q     12.170000    7.490000    1.730000
  Q     11.860000    8.250000    1.490000
  Q     19.060000    8.810000   16.110000
  Q     19.560000    7.440000   16.090000
  Q     19.590000    8.220000   15.890000
  Q      7.000000   20.170000   11.710000
  Q      8.270000   20.240000   12.310000
  Q      7.580000   19.860000   12.190000
  Q      3.430000    3.870000    4.230000
  Q      4.260000    5.060000    4.930000
  Q      3.620000    4.670000    4.520000
  Q     11.090000   10.380000   21.800000
  Q      9.970000    9.770000   21.010000
  Q     10.350000   10.380000   21.410000
  Q     15.140000   19.950000   10.420000
  Q     15.180000   20.190000    8.970000
  Q     15.220000   20.440000    9.750000
  Q      4.180000    6.690000   16.600000
  Q      2.850000    6.350000   17.340000
  Q      3.440000    6.240000   16.730000
  Q     13.310000    4.750000   10.860000
  Q     12.370000    5.810000   11.600000
  Q     12.870000    5.500000   10.960000
  Q      7.250000    5.390000    1.400000
  Q      7.950000    6.690000    1.880000
  Q      7.880000    5.870000    1.740000
  Q     15.070000   12.550000    3.680000
  Q     15.330000   13.480000    4.880000
  Q     15.540000   13.000000    4.220000
  Q      8.610000   16.240000   15.260000
  Q      8.570000   17.040000   16.650000
  Q      8.260000   16.670000   15.920000
  Q      9.830000    5.000000   19.610000
  Q     10.150000    4.880000   21.130000
  Q      9.900000    5.280000   20.440000
  Q      8.170000   15.780000   20.540000
  Q      8.560000   15.320000   19.140000
  Q      8.380000   15.900000   19.770000
  Q      9.060000    5.780000   15.880000
  Q      7.940000    5.720000   14.900000
  Q      8.490000    6.110000   15.380000
  Q      9.430000   18.210000    5.660000
  Q     10.060000   19.210000    4.650000
  Q      9.640000   18.500000    4.890000
  Q     17.300000   14.500000   15.480000
  Q     16.870000   15.460000   16.580000
  Q     17.200000   15.240000   15.840000
  Q     16.800000   11.880000    6.760000
  Q     16.390000   11.560000    5.270000
  Q     16.740000   11.390000    6.050000
  Q     10.690000   19.170000   15.550000
  Q     10.770000   20.640000   16.200000
  Q     10.740000   20.060000   15.570000
  Q     17.310000   16.330000   13.770000
  Q     18.630000   16.170000   13.100000
  Q     17.900000   16.560000   13.240000
  Q     14.120000    8.370000   16.290000
  Q     13.270000    7.130000   16.750000
  Q     13.590000    7.690000   16.190000
  Q      7.690000    0.780000   15.430000
  Q      6.820000    1.630000   16.420000
  Q      7.070000    1.310000   15.650000
  Q     18.360000   17.440000    9.930000
  Q     18.140000   16.610000   11.170000
  Q     17.980000   16.850000   10.390000
  Q     11.140000   11.750000   19.990000
  Q     11.550000   13.250000   19.500000
  Q     11.330000   12.410000   19.440000
  Q      4.780000    8.810000    9.460000
  Q      3.390000    9.470000    9.780000
  Q      4.110000    8.980000    9.940000
  Q     20.010000    9.500000   12.530000
  Q     19.780000    9.340000   11.070000
  Q     19.550000    9.280000   11.850000
  Q     14.620000    4.540000   14.010000
  Q     13.050000    4.290000   14.140000
  Q     13.850000    4.130000   13.890000
  Q      2.210000    9.370000   16.390000
  Q      2.150000    9.080000   14.870000
  Q      2.230000    9.570000   15.550000
  Q      3.560000    7.890000   11.400000
  Q      3.050000    7.220000   12.720000
  Q      3.470000    7.260000   11.990000
  Q     12.700000   16.970000    3.900000
  Q     13.910000   17.930000    3.740000
  Q     13.500000   17.240000    4.020000
  Q     12.210000   14.700000   14.000000
  Q     13.630000   14.550000   13.340000
  Q     12.930000   14.310000   13.770000
  Q     16.610000   12.010000   14.720000
  Q     18.130000   12.410000   14.420000
  Q     17.280000   12.530000   14.540000
  Q      4.090000   19.310000    9.220000
  Q      5.200000   18.360000    8.960000
  Q      4.880000   19.110000    9.090000
  Q      5.930000    6.200000    8.940000
  Q      5.940000    4.630000    8.710000
  Q      5.830000    5.390000    9.150000
  Q      1.340000    9.500000   11.360000
  Q      2.410000   10.040000   12.380000
  Q      1.630000    9.850000   12.120000
  Q     15.690000   16.930000   13.200000
  Q     15.170000   17.180000   14.670000
  Q     15.160000   16.860000   13.860000
  Q      8.850000    2.930000    6.220000
  Q      7.930000    2.630000    5.150000
  Q      8.310000    2.430000    5.830000
  Q      7.760000    9.250000   19.560000
  Q      9.120000    8.470000   19.310000
  Q      8.380000    8.660000   19.740000
  Q      6.270000   20.190000    9.760000
  Q      6.360000   21.700000   10.090000
  Q      6.640000   20.890000   10.070000
  Q      5.870000   11.040000   19.950000
  Q      5.540000   10.290000   21.120000
  Q      5.690000   10.350000   20.320000
  Q      4.900000   11.110000   17.640000
  Q      5.490000   11.830000   16.430000
  Q      5.430000   11.200000   17.010000
  Q      7.550000   17.770000   11.440000
  Q      8.690000   17.420000   10.580000
  Q      7.990000   17.260000   10.980000
  Q      4.980000   17.280000    5.630000
  Q      4.650000   17.010000    7.050000
  Q      5.170000   17.150000    6.400000
  Q     16.850000   13.440000   12.710000
  Q     17.140000   12.510000   11.410000
  Q     17.040000   13.230000   11.860000
  Q      9.560000    0.400000   13.400000
  Q      9.540000   -0.460000   14.690000
  Q      9.210000    0.070000   14.110000
  Q     15.560000    2.350000    6.820000
  Q     14.120000    3.090000    6.920000
  Q     14.780000    2.560000    7.170000
  Q      5.430000    2.650000    7.450000
  Q      6.960000    2.660000    7.220000
  Q      6.250000    2.920000    7.560000
  Q      6.100000    5.010000   16.470000
  Q      6.260000    5.750000   17.860000
  Q      6.240000    5.090000   17.310000
  Q     13.620000    3.900000    5.020000
  Q     12.460000    4.140000    6.030000
  Q     13.270000    4.120000    5.790000
  Q      9.780000    3.770000   17.880000
  Q      8.510000    4.650000   17.850000
  Q      9.340000    4.510000   17.870000
  Q     11.760000    8.270000    4.630000
  Q     13.000000    8.780000    3.940000
  Q     12.380000    8.810000    4.520000
  Q     10.740000   15.830000    3.310000
  Q     10.500000   17.080000    4.150000
  Q     10.940000   16.380000    3.900000
  Q     11.970000    8.110000   18.600000
  Q     11.310000    9.170000   17.660000
  Q     11.440000    8.730000   18.380000
  Q     17.030000    9.510000    6.180000
  Q     17.920000    8.460000    7.020000
  Q     17.230000    8.800000    6.620000
  Q      7.500000    8.500000   16.930000
  Q      8.810000    8.300000   16.320000
  Q      8.250000    8.720000   16.740000
  Q     19.980000   19.180000    9.350000
  Q     18.790000   19.520000    8.520000
  Q     19.330000   19.010000    8.850000
  Q      4.630000    2.570000   13.640000
  Q      3.870000    3.050000   12.500000
  Q      3.940000    2.680000   13.250000
  Q      7.190000   17.700000    7.200000
  Q      8.470000   17.790000    8.160000
  Q      8.050000   17.730000    7.420000
  Q     12.680000    5.420000    3.370000
  Q     11.690000    5.380000    2.200000
  Q     12.290000    5.740000    2.690000
  Q     17.560000    2.620000   10.260000
  Q     16.140000    3.040000    9.890000
  Q     16.940000    2.910000    9.740000
  Q     11.040000    1.780000   15.560000
  Q     10.740000    1.920000   14.160000
  Q     11.020000    2.190000   14.870000
  Q     19.040000   15.410000    4.990000
  Q     18.150000   14.840000    6.110000
  Q     18.420000   14.920000    5.300000
  Q      9.130000   14.280000    2.530000
  Q      9.850000   13.870000    1.300000
  Q      9.800000   14.260000    2.020000
  Q     20.550000   11.810000    4.010000
  Q     19.590000   11.710000    2.800000
  Q     20.340000   11.590000    3.210000
  Q     15.260000   19.040000   15.970000
  Q     16.760000   19.410000   15.760000
  Q     16.110000   18.960000   16.010000
  Q     15.390000    7.600000    2.710000
  Q     14.060000    7.980000    2.050000
  Q     14.680000    8.030000    2.610000
  Q      7.230000   13.070000    2.710000
  Q      6.120000   13.210000    1.810000
  Q      6.660000   12.760000    2.220000
  Q     17.300000    4.900000   15.430000
  Q     17.810000    3.560000   15.170000
  Q     17.850000    4.310000   15.520000
  Q     15.600000   19.050000    7.190000
  Q     14.050000   19.150000    7.370000
  Q     14.840000   19.440000    7.300000
  Q     11.570000    9.000000    6.590000
  Q     11.770000    7.870000    7.650000
  Q     11.350000    8.460000    7.200000
  Q     16.270000    4.420000   17.410000
  Q     16.230000    5.960000   17.640000
  Q     15.910000    5.160000   17.590000
  Q     16.120000    6.700000   13.940000
  Q     14.840000    6.870000   14.840000
  Q     15.540000    6.490000   14.520000
  Q     19.050000   18.310000   13.720000
  Q     18.540000   19.760000   13.700000
  Q     19.090000   19.160000   13.850000
  Q      6.490000   17.260000   14.450000
  Q      6.270000   18.570000   13.780000
  Q      6.060000   17.790000   13.980000
  Q      4.000000    4.590000   10.650000
  Q      3.010000    5.430000   11.530000
  Q      3.290000    4.710000   11.110000
  Q     17.190000   12.690000    2.840000
  Q     18.510000   13.310000    3.420000
  Q     18.020000   12.920000    2.800000
  Q     11.130000    0.680000   12.120000
  Q     10.620000    2.050000   11.700000
  Q     10.700000    1.380000   12.210000
  Q      2.050000    6.140000    8.300000
  Q      3.490000    6.470000    8.900000
  Q      2.800000    6.530000    8.380000
  Q     20.820000   14.600000   10.350000
  Q     22.190000   13.960000    9.960000
  Q     21.520000   14.480000    9.860000
  Q      3.090000   13.200000   17.760000
  Q      3.960000   14.290000   17.170000
  Q      3.250000   13.890000   17.290000
  Q     19.880000   17.270000    5.830000
  Q     20.010000   17.650000    7.420000
  Q     19.970000   17.150000    6.700000
  Q     19.430000   12.720000   18.370000
  Q     18.950000   12.670000   16.970000
  Q     19.320000   12.330000   17.650000
  Q      4.640000   10.880000   13.050000
  Q      3.720000   10.380000   14.010000
  Q      4.160000   10.290000   13.360000
  Q     11.750000   20.560000   13.730000
  Q     11.870000   20.340000   12.190000
  Q     12.110000   20.610000   12.960000
  Q      5.480000   12.560000    5.590000
  Q      6.070000   13.250000    4.320000
  Q      5.510000   13.150000    4.950000
  Q     10.550000    3.430000    4.530000
  Q     10.270000    4.950000    4.370000
  Q     10.450000    4.230000    4.790000
  Q      2.880000    3.460000   14.760000
  Q      2.800000    4.540000   15.850000
  Q      2.560000    3.870000   15.430000
  Q     16.780000    9.760000    1.650000
  Q     17.040000   11.150000    1.150000
  Q     16.580000   10.520000    1.430000
  Q      5.610000   15.810000   17.620000
  Q      6.700000   15.060000   16.970000
  Q      5.900000   15.190000   17.140000
  Q     17.230000    8.350000   17.740000
  Q     17.960000    7.600000   18.690000
  Q     17.410000    7.660000   18.140000
  Q      8.640000   20.790000    9.750000
  Q      9.770000   21.530000    8.820000
  Q      9.280000   20.880000    9.140000
  Q     14.410000    3.400000   11.920000
  Q     13.960000    2.540000   10.670000
  Q     14.080000    3.240000   11.150000
  Q     13.960000   14.980000   15.700000
  Q     13.990000   14.870000   17.260000
  Q     13.980000   15.270000   16.500000
  Q      0.480000   14.210000   12.600000
  Q      0.710000   13.850000   14.030000
  Q      0.330000   14.230000   13.400000
  Q      4.040000   14.350000   11.230000
  Q      4.620000   12.870000   11.200000
  Q      4.230000   13.560000   10.910000
  Q      5.470000    6.910000   19.670000
  Q      6.990000    7.190000   19.330000
  Q      6.280000    6.710000   19.490000
  Q     12.450000   16.790000   11.900000
  Q     12.660000   17.450000   13.230000
  Q     12.200000   17.110000   12.640000
  Q     18.890000   14.420000   11.690000
  Q     20.100000   14.400000   12.440000
  Q     19.620000   14.670000   11.840000
  Q      2.970000   11.600000   19.490000
  Q      2.040000   11.220000   18.320000
  Q      2.770000   11.430000   18.700000
  Q     12.060000    1.020000    9.020000
  Q     10.890000    1.720000    8.260000
  Q     11.360000    1.070000    8.500000
  Q     15.210000    8.790000    6.800000
  Q     13.750000    8.440000    6.210000
  Q     14.370000    8.610000    6.810000
  Q     14.300000   15.100000   19.590000
  Q     13.070000   14.790000   18.870000
  Q     13.850000   14.670000   19.050000
  Q      6.400000   16.430000    9.840000
  Q      5.520000   15.690000    8.800000
  Q      5.690000   16.290000    9.370000
  Q      9.700000    8.620000    3.550000
  Q      8.990000    9.100000    2.240000
  Q      9.630000    9.000000    2.800000
  Q      1.270000    6.780000   14.250000
  Q      2.530000    6.860000   15.000000
  Q      2.030000    7.090000   14.370000
  Q     17.260000   13.450000    8.280000
  Q     16.980000   12.170000    9.160000
  Q     16.820000   12.780000    8.560000
  Q     22.040000   10.190000   13.350000
  Q     21.080000    9.560000   14.630000
  Q     21.340000   10.040000   13.920000

----------------------------
CARTESIAN COORDINATES (A.U.)
----------------------------
  NO LB      ZA    FRAG     MASS         X           Y           Z
   0 C     6.0000    0    12.011   18.046885   19.426385   22.374357
   1 H     1.0000    0     1.008   16.327234   20.654707   22.279871
   2 H     1.0000    0     1.008   19.256309   20.163378   23.753858
   3 C     6.0000    0    12.011   19.426385   19.086234   19.861022
   4 H     1.0000    0     1.008   20.786987   17.631145   20.333453
   5 H     1.0000    0     1.008   18.292549   18.632700   18.273652
   6 C     6.0000    0    12.011   20.938166   21.372803   18.821672
   7 H     1.0000    0     1.008   19.690946   23.073556   18.727186
   8 H     1.0000    0     1.008   21.146035   21.013755   16.837460
   9 C     6.0000    0    12.011   23.394810   22.109796   20.125583
  10 H     1.0000    0     1.008   24.566440   20.560220   20.786987
  11 H     1.0000    0     1.008   22.733405   22.865686   21.920823
  12 O     8.0000    0    15.999   24.774310   24.075111   18.972850
  13 H     1.0000    0     1.008   25.397919   23.470399   17.328789
  14 O     8.0000    0    15.999   17.007535   17.102022   22.922378
  15 H     1.0000    0     1.008   15.760316   17.234302   24.339673
  16 O     8.0000    0    15.999   15.514652   12.472192   20.295659
  17 H     1.0000    0     1.008   15.779213   14.210741   20.503529
  18 H     1.0000    0     1.008   16.157158   11.999761   18.538213
  19 O     8.0000    0    15.999   24.188495   17.347686   24.207392
  20 H     1.0000    0     1.008   23.753858   18.594905   25.397919
  21 H     1.0000    0     1.008   23.243631   15.779213   24.604234
  22 O     8.0000    0    15.999   22.808994   28.383687   17.177611
  23 H     1.0000    0     1.008   23.829447   27.079775   18.103576
  24 H     1.0000    0     1.008   23.829447   28.742734   15.646932
  25 O     8.0000    0    15.999   28.572659   17.253200   21.335008
  26 H     1.0000    0     1.008   28.194714   16.119364   19.917713
  27 H     1.0000    0     1.008   27.023084   17.442172   22.393255
  28 O     8.0000    0    15.999   13.870590   21.901926   16.157158
  29 H     1.0000    0     1.008   14.361919   22.147590   14.399713
  30 H     1.0000    0     1.008   14.720967   23.394810   16.629590
  31 O     8.0000    0    15.999   27.419926   31.671810   15.231193
  32 H     1.0000    0     1.008   28.893913   32.030858   14.191843
  33 H     1.0000    0     1.008   27.778974   32.163139   16.913049
  34 O     8.0000    0    15.999   32.748954   20.616912   20.560220
  35 H     1.0000    0     1.008   34.241838   19.785433   20.957063
  36 H     1.0000    0     1.008   31.445043   19.426385   20.938166
  37 O     8.0000    0    15.999   32.049755   14.607583   23.810549
  38 H     1.0000    0     1.008   30.500180   15.023323   22.922378
  39 H     1.0000    0     1.008   33.353666   15.873700   23.432604
  40 O     8.0000    0    15.999   15.533549   23.659371   11.640713
  41 H     1.0000    0     1.008   15.457960   25.454611   11.980864
  42 H     1.0000    0     1.008   17.328789   23.451501   11.546227
  43 O     8.0000    0    15.999   11.886377   15.892597   25.870351
  44 H     1.0000    0     1.008   11.924172   14.796556   24.471953
  45 H     1.0000    0     1.008   10.450186   16.931946   25.435714
  46 O     8.0000    0    15.999   16.270542    8.787227   24.018419
  47 H     1.0000    0     1.008   17.385480    9.127377   25.416817
  48 H     1.0000    0     1.008   15.873700   10.336802   23.281426
  49 O     8.0000    0    15.999   28.686043   12.736754   17.479967
  50 H     1.0000    0     1.008   27.325440   11.735199   18.387035
  51 H     1.0000    0     1.008   28.043536   13.568234   16.005980
  52 O     8.0000    0    15.999   27.419926   26.739625   12.339912
  53 H     1.0000    0     1.008   25.700275   27.212056   11.905275
  54 H     1.0000    0     1.008   28.024639   28.119125   13.322569
  55 O     8.0000    0    15.999   11.092692   23.243631   24.679823
  56 H     1.0000    0     1.008   12.528884   22.657816   25.719173
  57 H     1.0000    0     1.008   10.336802   24.660926   25.492406
  58 O     8.0000    0    15.999   21.523981   22.279871   11.565124
  59 H     1.0000    0     1.008   21.712953   21.656261    9.939959
  60 H     1.0000    0     1.008   23.262529   22.279871   12.302117
  61 O     8.0000    0    15.999   23.243631   33.901687   12.698960
  62 H     1.0000    0     1.008   23.451501   33.580433   10.998206
  63 H     1.0000    0     1.008   24.509748   32.994618   13.568234
  64 O     8.0000    0    15.999   17.026432   11.602918   15.476857
  65 H     1.0000    0     1.008   16.176056   10.809233   14.097357
  66 H     1.0000    0     1.008   18.557111   12.377706   14.853247
  67 O     8.0000    0    15.999   24.547542   21.580672   27.722282
  68 H     1.0000    0     1.008   24.188495   23.281426   27.174262
  69 H     1.0000    0     1.008   24.509748   21.637364   29.536419
  70 O     8.0000    0    15.999   20.957063   17.839015   29.952159
  71 H     1.0000    0     1.008   22.412152   17.083124   29.271858
  72 H     1.0000    0     1.008   20.805885   19.331898   28.969502
  73 O     8.0000    0    15.999    8.447076   21.599570   13.624925
  74 H     1.0000    0     1.008    9.939959   21.259419   14.626480
  75 H     1.0000    0     1.008    7.842363   23.300323   14.380816
  76 O     8.0000    0    15.999   21.448392   12.642268   24.320775
  77 H     1.0000    0     1.008   21.542878   11.791891   25.964837
  78 H     1.0000    0     1.008   19.879919   13.587131   24.282981
  79 O     8.0000    0    15.999   22.374357   27.514413   11.527329
  80 H     1.0000    0     1.008   21.845234   25.832556   11.149384
  81 H     1.0000    0     1.008   22.431049   28.534865    9.977754
  82 O     8.0000    0    15.999   15.817008   26.248296   18.405933
  83 H     1.0000    0     1.008   16.270542   25.832556   20.125583
  84 H     1.0000    0     1.008   16.648487   27.778974   18.235857
  85 O     8.0000    0    15.999   15.004426   21.108241   27.835666
  86 H     1.0000    0     1.008   14.267432   20.012200   29.158474
  87 H     1.0000    0     1.008   16.270542   22.242077   28.912810
  88 O     8.0000    0    15.999   12.944624   18.764981   10.469083
  89 H     1.0000    0     1.008   13.738309   20.352350   10.147829
  90 H     1.0000    0     1.008   13.851693   18.065782   11.867480
  91 O     8.0000    0    15.999   26.267193   21.845234   13.001316
  92 H     1.0000    0     1.008   27.457721   23.243631   12.963521
  93 H     1.0000    0     1.008   27.230954   20.295659   13.152494
  94 O     8.0000    0    15.999   10.941514   27.533310   14.607583
  95 H     1.0000    0     1.008   11.432843   27.457721   12.925727
  96 H     1.0000    0     1.008   12.207631   26.607344   15.571343
  97 O     8.0000    0    15.999   29.649803   19.747638   27.457721
  98 H     1.0000    0     1.008   29.744289   18.046885   26.853008
  99 H     1.0000    0     1.008   27.930152   20.257864   27.287645
 100 O     8.0000    0    15.999   10.865925   10.393494   23.035762
 101 H     1.0000    0     1.008   11.829686   10.601364   21.486186
 102 H     1.0000    0     1.008    9.278555   11.149384   22.695611
 103 O     8.0000    0    15.999   16.005980   17.423275   14.456405
 104 H     1.0000    0     1.008   17.763426   17.253200   14.853247
 105 H     1.0000    0     1.008   15.495754   18.916159   15.363473
 106 O     8.0000    0    15.999   27.344337   27.533310   21.712953
 107 H     1.0000    0     1.008   26.796317   26.172707   20.635809
 108 H     1.0000    0     1.008   29.082885   27.155365   21.920823
 109 O     8.0000    0    15.999   19.842124   32.616673   17.971296
 110 H     1.0000    0     1.008   20.843679   31.142687   17.857912
 111 H     1.0000    0     1.008   20.635809   33.523742   16.648487
 112 Q     0.6645    0     0.000   38.380338   22.166488   26.380577
 113 Q     0.6645    0     0.000   38.928358   25.076666   26.607344
 114 Q    -1.3290    0     0.000   38.021290   23.753858   26.531755
 115 Q     0.6645    0     0.000   23.111351   14.267432   39.797632
 116 Q     0.6645    0     0.000   21.486186   12.321014   38.531516
 117 Q    -1.3290    0     0.000   22.865686   12.925727   39.041742
 118 Q     0.6645    0     0.000    8.787227   13.341467   10.317905
 119 Q     0.6645    0     0.000    7.653391   11.829686   12.509987
 120 Q    -1.3290    0     0.000    8.825021   12.226528   11.470638
 121 Q     0.6645    0     0.000   37.189810   14.758761    7.842363
 122 Q     0.6645    0     0.000   34.978831   14.456405    9.656501
 123 Q    -1.3290    0     0.000   35.848105   14.097357    8.390384
 124 Q     0.6645    0     0.000    0.415740   24.094008   12.339912
 125 Q     0.6645    0     0.000    3.477096   24.169597   12.944624
 126 Q    -1.3290    0     0.000    2.003110   23.659371   12.321014
 127 Q     0.6645    0     0.000   18.009090   28.175817   25.284536
 128 Q     0.6645    0     0.000   19.993302   30.235618   25.190049
 129 Q    -1.3290    0     0.000   19.180720   29.045091   25.908145
 130 Q     0.6645    0     0.000    9.921062   12.339912    3.155843
 131 Q     0.6645    0     0.000    8.598254   14.191843    5.083363
 132 Q    -1.3290    0     0.000    9.070685   13.662720    3.647171
 133 Q     0.6645    0     0.000   26.097118    3.552685   26.380577
 134 Q     0.6645    0     0.000   25.870351    0.888171   25.303433
 135 Q    -1.3290    0     0.000   26.569549    2.078699   26.078221
 136 Q     0.6645    0     0.000   25.322330   36.471714   32.900132
 137 Q     0.6645    0     0.000   24.396364   36.093769   30.216721
 138 Q    -1.3290    0     0.000   25.190049   36.811865   31.331659
 139 Q     0.6645    0     0.000   26.493960    3.118048   16.724076
 140 Q     0.6645    0     0.000   26.871906    0.888171   18.802775
 141 Q    -1.3290    0     0.000   26.153810    2.192082   18.084679
 142 Q     0.6645    0     0.000   18.897261   28.440378   12.132042
 143 Q     0.6645    0     0.000   16.591795   30.065543   12.547782
 144 Q    -1.3290    0     0.000   17.347686   28.837221   11.980864
 145 Q     0.6645    0     0.000   19.010645    6.916398   16.138261
 146 Q     0.6645    0     0.000   19.350796    7.785672   13.303672
 147 Q    -1.3290    0     0.000   19.199618    6.708528   14.494199
 148 Q     0.6645    0     0.000   11.470638    9.335247   26.059323
 149 Q     0.6645    0     0.000   13.133597    7.256548   27.060878
 150 Q    -1.3290    0     0.000   12.188734    8.503768   27.212056
 151 Q     0.6645    0     0.000   14.645378   33.504844    7.218754
 152 Q     0.6645    0     0.000   12.037555   33.788303    6.236096
 153 Q    -1.3290    0     0.000   13.492645   33.164694    6.217199
 154 Q     0.6645    0     0.000   21.561775    8.239206   29.271858
 155 Q     0.6645    0     0.000   22.922378   10.525775   30.462385
 156 Q    -1.3290    0     0.000   22.147590    9.750987   29.309652
 157 Q     0.6645    0     0.000   32.673365   11.867480   21.448392
 158 Q     0.6645    0     0.000   31.501735   10.223418   19.653152
 159 Q    -1.3290    0     0.000   32.711159   10.639158   20.522426
 160 Q     0.6645    0     0.000   34.714269    7.558905   21.599570
 161 Q     0.6645    0     0.000   36.490612    5.839254   23.092453
 162 Q    -1.3290    0     0.000   35.130009    6.179404   22.374357
 163 Q     0.6645    0     0.000   28.931707   30.897022    6.462863
 164 Q     0.6645    0     0.000   30.915920   28.704940    6.708528
 165 Q    -1.3290    0     0.000   30.254515   30.027748    6.047124
 166 Q     0.6645    0     0.000   36.490612    8.428179   15.646932
 167 Q     0.6645    0     0.000   35.337879   10.204521   17.744528
 168 Q    -1.3290    0     0.000   36.433920    9.694295   16.724076
 169 Q     0.6645    0     0.000   24.075111   23.621577   -0.340151
 170 Q     0.6645    0     0.000   24.793207   23.678268    2.551130
 171 Q    -1.3290    0     0.000   23.980625   23.961727    1.228322
 172 Q     0.6645    0     0.000   18.670494    7.634494   21.637364
 173 Q     0.6645    0     0.000   21.448392    7.728980   20.749193
 174 Q    -1.3290    0     0.000   19.879919    7.275446   20.711398
 175 Q     0.6645    0     0.000    9.165172   18.160268    3.703863
 176 Q     0.6645    0     0.000   10.412391   20.881474    3.382610
 177 Q    -1.3290    0     0.000    9.524220   19.539768    2.966870
 178 Q     0.6645    0     0.000   25.001077   19.879919   33.467050
 179 Q     0.6645    0     0.000   23.545988   22.279871   34.166249
 180 Q    -1.3290    0     0.000   24.528645   21.429494   33.296974
 181 Q     0.6645    0     0.000   27.287645   20.314556    5.310130
 182 Q     0.6645    0     0.000   24.963282   20.919268    7.029781
 183 Q    -1.3290    0     0.000   26.097118   21.202727    5.895946
[...]
 362   Q   :   -0.150371427   -0.143663793   -0.170303311
 363   Q   :   -0.077960887    0.154169794    0.214628730
 364   Q   :    0.234236807    0.001693994   -0.048002746
 365   Q   :    0.122239241   -0.137937862   -0.204212368
 366   Q   :    0.103403672    0.100455331    0.217997017
 367   Q   :   -0.227940141    0.038940715   -0.012970634
 368   Q   :   -0.008622077   -0.096605219   -0.221142168
 369   Q   :    0.093494828   -0.156438888    0.237959313
 370   Q   :   -0.082556833    0.251660592   -0.002077158
 371   Q   :   -0.081543952   -0.069608782    0.314571660
 372   Q   :    0.061474411   -0.174181079   -0.176084984
 373   Q   :    0.021985641    0.258072682   -0.134536972
 374   Q   :    0.206168113   -0.136969639    0.172631981
 375   Q   :   -0.175220713   -0.153903241   -0.171039301
 376   Q   :   -0.026866086    0.294812233   -0.003813271
 377   Q   :   -0.056316490   -0.088531810    0.250777477
 378   Q   :    0.143132083    0.232834171   -0.068415095
 379   Q   :   -0.086404027   -0.129546922   -0.180282016
 380   Q   :    0.037992672   -0.265055940   -0.112717326
 381   Q   :   -0.112381906    0.057182057    0.267849021
 382   Q   :    0.067121576    0.213671981   -0.141780035
 383   Q   :    0.015465426    0.157987827    0.204300249
 384   Q   :   -0.105328471    0.046759912   -0.227335715
 385   Q   :    0.087211748   -0.203935947    0.018700248
 386   Q   :   -0.008589164   -0.259392374    0.005999428
 387   Q   :    0.008967594    0.184556895    0.224405217
 388   Q   :   -0.004751817    0.077469654   -0.222727180
 389   Q   :   -0.207011912   -0.097220694    0.183991645
 390   Q   :    0.243367084   -0.143690166   -0.040273931
 391   Q   :   -0.043806276    0.244684548   -0.145435240
 392   Q   :    0.163271178    0.212168330    0.032908690
 393   Q   :   -0.101952159   -0.166088190    0.185942992
 394   Q   :   -0.067910818   -0.038836902   -0.224478639
 395   Q   :    0.218265303   -0.181481521   -0.050554127
 396   Q   :   -0.057088120    0.092581585    0.245880736
 397   Q   :   -0.161200842    0.086350919   -0.185635520
 398   Q   :    0.136005098    0.198848958   -0.145960362
 399   Q   :    0.066930535   -0.077050893    0.271160083
 400   Q   :   -0.193905448   -0.125953594   -0.122532690
 401   Q   :   -0.050378362   -0.185464413    0.162525158
 402   Q   :    0.070303239    0.259607130    0.030598373
 403   Q   :   -0.014058136   -0.067015477   -0.181026410
 404   Q   :    0.226111109   -0.047713270   -0.173320271
 405   Q   :   -0.203185340    0.150517820   -0.055450945
 406   Q   :   -0.017259200   -0.090024422    0.222890913
 407   Q   :    0.156263035    0.080179265    0.204723788
 408   Q   :    0.091972174    0.031981493   -0.278311982
 409   Q   :   -0.243805136   -0.119924521    0.079786071
 410   Q   :    0.223668996    0.119956789    0.035969004
 411   Q   :   -0.262218605    0.058473502    0.083003660
 412   Q   :    0.035821151   -0.180519947   -0.119873877
 413   Q   :    0.000737770   -0.068563429    0.261122555
 414   Q   :   -0.022028436   -0.167371314   -0.219568308
 415   Q   :    0.025658456    0.241832445   -0.040630408
 416   Q   :    0.015129418    0.187408686   -0.162768470
 417   Q   :   -0.137185400   -0.012292350    0.233276585
 418   Q   :    0.118557149   -0.162539475   -0.069494086
 419   Q   :   -0.248081973   -0.064793590   -0.041174323
 420   Q   :    0.132141474    0.238817372   -0.103177038
 421   Q   :    0.126986362   -0.168369075    0.145638666
 422   Q   :   -0.229533116    0.140237055    0.082115658
 423   Q   :    0.221414248    0.086826331   -0.123805598
 424   Q   :    0.011752830   -0.218397538    0.042637719
 425   Q   :   -0.199170408   -0.156597318    0.066747563
 426   Q   :    0.251417080   -0.044754615   -0.026916044
 427   Q   :   -0.059630246    0.193855966   -0.030546786
 428   Q   :   -0.300120480    0.056566068    0.047501788
 429   Q   :    0.097091861   -0.270323777   -0.047855225
 430   Q   :    0.189139254    0.214237361   -0.009504797
 431   Q   :    0.030822443    0.265004277   -0.080155097
 432   Q   :    0.030338305   -0.206451427   -0.136638748
 433   Q   :   -0.062095569   -0.061642530    0.219595873
 434   Q   :   -0.068849113   -0.092271033   -0.219470592
 435   Q   :    0.269019463    0.066723046    0.072759749
 436   Q   :   -0.206449715    0.027644946    0.152365933
 437   Q   :    0.187353221    0.026065726   -0.215399278
 438   Q   :    0.007771757    0.103101463    0.246237501
 439   Q   :   -0.200396974   -0.132484645   -0.024020866
 440   Q   :    0.171213433    0.198763655    0.106795928
 441   Q   :   -0.148881142    0.115391901   -0.278189015
 442   Q   :   -0.020724084   -0.315011477    0.160229958
 443   Q   :   -0.180370954    0.186175366   -0.070397749
 444   Q   :    0.222009407   -0.044515857   -0.133166198
 445   Q   :   -0.040048940   -0.140615147    0.209542742
 446   Q   :   -0.115710235   -0.213202976   -0.089348785
 447   Q   :   -0.102407773    0.265069931    0.006604545
 448   Q   :    0.219044110   -0.039630579    0.075439407
 449   Q   :    0.065185266    0.273186356   -0.131362039
 450   Q   :   -0.061939394   -0.003412459    0.307531429
 451   Q   :   -0.001581715   -0.271859238   -0.172925539
 452   Q   :   -0.196477993   -0.019783584    0.229052915
 453   Q   :    0.009043529    0.215617575   -0.181869808
 454   Q   :    0.192939173   -0.192063728   -0.046604916
 455   Q   :   -0.158656218    0.192562969    0.162086538
 456   Q   :    0.248987246    0.071684813   -0.143843829
 457   Q   :   -0.090443064   -0.259267596   -0.018657329
 458   Q   :   -0.099383787    0.053862178   -0.302286564
 459   Q   :   -0.199095541   -0.045737110    0.211956704
 460   Q   :    0.289741787   -0.006353661    0.091452349
 461   Q   :   -0.060740640    0.067703939    0.232962392
 462   Q   :    0.028739128   -0.219866980   -0.137002171
 463   Q   :    0.028857844    0.158750160   -0.105014863
 464   Q   :    0.132078884    0.089423151   -0.211345604
 465   Q   :    0.130561512   -0.177376330    0.195826156
 466   Q   :   -0.262038558    0.078229282    0.016855593
 467   Q   :    0.238094285   -0.059506492   -0.122562201
 468   Q   :   -0.181256255    0.143480252   -0.070129357
 469   Q   :   -0.043706649   -0.091027058    0.190922781
 470   Q   :   -0.251224830   -0.090524937   -0.045516835
 471   Q   :    0.238551885   -0.097419741   -0.124120493
 472   Q   :    0.008768348    0.187715643    0.164116429
 473   Q   :   -0.047343535   -0.016644948   -0.264386796
 474   Q   :    0.010939204    0.212750173    0.156878395
 475   Q   :    0.033145643   -0.187299632    0.103665693
 476   Q   :    0.093136988   -0.070284281   -0.249035931
 477   Q   :   -0.272443429   -0.000309806    0.066986035
 478   Q   :    0.175377259    0.081205298    0.170044263
 479   Q   :    0.134863684   -0.249089287    0.008709679
 480   Q   :   -0.274965313    0.031679394   -0.002926693
 481   Q   :    0.143726104    0.215382483   -0.014967172
 482   Q   :   -0.218779546   -0.204109691    0.035706296
 483   Q   :    0.196278594   -0.021431955   -0.187345710
 484   Q   :    0.015894101    0.230486359    0.146239515
 485   Q   :   -0.076765316   -0.182522537   -0.203788184
 486   Q   :   -0.128842674    0.202953940    0.061901854
 487   Q   :    0.196697646   -0.028293758    0.136192584
 488   Q   :    0.195108705   -0.214377396    0.066513451
 489   Q   :   -0.024759089    0.137034755   -0.223907103
 490   Q   :   -0.165748436    0.074341730    0.161676054
 491   Q   :   -0.058959271    0.212617354   -0.144345480
 492   Q   :    0.215964736   -0.098456777    0.112619254
 493   Q   :   -0.157845900   -0.126712256    0.027618913
 494   Q   :   -0.282310119   -0.093310623    0.079301040
 495   Q   :    0.206020078   -0.162474279   -0.154545930
 496   Q   :    0.083699002    0.249113621    0.080991104
 497   Q   :    0.224300764    0.072145626    0.172533527
 498   Q   :   -0.198689947    0.206674185   -0.121878109
 499   Q   :   -0.024876781   -0.267894405   -0.049242133
 500   Q   :    0.289774641   -0.034347021    0.150258229
 501   Q   :   -0.001730092    0.128105705   -0.253098039
 502   Q   :   -0.283084859   -0.103329030    0.096457353
 503   Q   :   -0.242184623   -0.007936666   -0.048655707
 504   Q   :    0.129897109    0.015138415    0.254237869
 505   Q   :    0.109219614    0.003658442   -0.194000050
 506   Q   :    0.125337204   -0.130609584    0.233104435
 507   Q   :   -0.198236732   -0.136048655   -0.150132069
 508   Q   :    0.075729987    0.255055086   -0.076409051
 509   Q   :    0.183643775   -0.098333705    0.167375482
 510   Q   :   -0.300579317    0.044843151    0.073242282
 511   Q   :    0.113132413    0.049706292   -0.249653773
 512   Q   :    0.000262060   -0.182245967    0.277171754
 513   Q   :   -0.109828210   -0.122462782   -0.251136836
 514   Q   :    0.108249467    0.295867920   -0.020194442
 515   Q   :    0.216630014    0.180215458   -0.096475993
 516   Q   :   -0.074721257   -0.019103083    0.258595404
 517   Q   :   -0.142227868   -0.156923739   -0.166261924
 518   Q   :   -0.233699878   -0.007321020    0.159946580
 519   Q   :   -0.003085333   -0.155458327   -0.268598053
 520   Q   :    0.236030703    0.156176539    0.096775185
 521   Q   :    0.059805575    0.081964716    0.258657273
 522   Q   :   -0.241062196    0.038615171   -0.117333148
 523   Q   :    0.193670624   -0.125170418   -0.147541385
 524   Q   :   -0.272590739    0.025494146   -0.024592565
 525   Q   :    0.233651985    0.178116382   -0.099317533
 526   Q   :    0.049293253   -0.205577463    0.121592980
 527   Q   :    0.252913251   -0.164472504    0.023192794
 528   Q   :   -0.209374564   -0.034960856   -0.198786512
 529   Q   :   -0.036765664    0.192761758    0.172666520
 530   Q   :    0.210755630    0.134908860    0.186605840
 531   Q   :   -0.199232953    0.190058834   -0.148387530
 532   Q   :   -0.007199249   -0.327402056   -0.042236675
 533   Q   :   -0.224930617    0.211595335   -0.044306429
 534   Q   :   -0.035532583   -0.272442052   -0.134510193
 535   Q   :    0.266111605    0.057541874    0.178234167
 536   Q   :    0.236419279   -0.135656935   -0.026793754
 537   Q   :   -0.261595020   -0.115333785    0.028367296
 538   Q   :    0.018794944    0.253488593   -0.007733598
 539   Q   :    0.081655073    0.176175610   -0.209344659
 540   Q   :    0.138114501   -0.178736501    0.138537629
 541   Q   :   -0.214030417    0.010513966    0.071947598
 542   Q   :    0.132337407   -0.254807618   -0.063105722
 543   Q   :    0.102366438    0.242040971    0.012406296
 544   Q   :   -0.229578973    0.005239996    0.050109387
 545   Q   :    0.181076616    0.073923132   -0.193036776
 546   Q   :   -0.218531897    0.133075862    0.086837734
 547   Q   :    0.038067520   -0.204871153    0.106071787
 548   Q   :   -0.022433589   -0.269388198   -0.048954017
 549   Q   :   -0.219885584    0.215768787   -0.060615225
 550   Q   :    0.248065369    0.056553192    0.110725820
 551   Q   :    0.166534436   -0.181161871    0.170171288
 552   Q   :    0.086625868    0.278516080   -0.058738478
 553   Q   :   -0.254215214   -0.097400513   -0.111891584
 554   Q   :    0.232151719   -0.026787669   -0.148847124
 555   Q   :   -0.074123461    0.207095137    0.119628952
 556   Q   :   -0.158642629   -0.180280093    0.033923044
 557   Q   :   -0.261356570   -0.073039897    0.015652944
 558   Q   :    0.139317679    0.112493181    0.188179751
 559   Q   :    0.123097867   -0.037135691   -0.209924474
 560   Q   :    0.165529789   -0.261501863   -0.034025390
 561   Q   :   -0.012300747    0.203884173   -0.167806531
 562   Q   :   -0.147268392    0.056625708    0.191178479
 563   Q   :   -0.256435430   -0.137993372   -0.017640347
 564   Q   :    0.213759066   -0.030021814    0.166533218
 565   Q   :    0.041743414    0.171383885   -0.148263641
 566   Q   :   -0.206589857    0.022220180    0.155670348
 567   Q   :    0.222814336   -0.185520036    0.046570700
 568   Q   :   -0.008530421    0.162337866   -0.204800952
 569   Q   :   -0.032973395   -0.223971474    0.160585833
 570   Q   :    0.268256941    0.136138877   -0.032253381
 571   Q   :   -0.242434050    0.098141848   -0.123312010
 572   Q   :   -0.025929924    0.035716120   -0.262502345
 573   Q   :    0.012773061    0.151548883    0.204966944
 574   Q   :    0.015717844   -0.186756142    0.053423793
 575   Q   :    0.027728414    0.166242318    0.262340990
 576   Q   :   -0.136432527    0.137209764   -0.219414018
 577   Q   :    0.113037598   -0.299136427   -0.041998737
 578   Q   :    0.160973537    0.215149399   -0.098967912
 579   Q   :   -0.173170206    0.056876788    0.268191503
 580   Q   :    0.006908651   -0.272253826   -0.172745476
 581   Q   :   -0.124894190   -0.025844361    0.246469362
 582   Q   :   -0.082221657   -0.089670635   -0.237534009
 583   Q   :    0.206673581    0.130584010   -0.005146182
 584   Q   :    0.007108480   -0.179696576    0.189085557
 585   Q   :    0.197608686    0.022313374   -0.203125240
 586   Q   :   -0.196996571    0.156504183    0.006487095
 587   Q   :    0.034191400   -0.267590148   -0.105366654
 588   Q   :   -0.057467476    0.222461334   -0.155596852
 589   Q   :    0.023992777    0.045340744    0.250722725
 590   Q   :    0.115047531   -0.120641639   -0.214805198
 591   Q   :    0.093087128    0.245708771    0.141696275
 592   Q   :   -0.216948354   -0.127718057    0.077208698
 593   Q   :    0.097272323   -0.292784354    0.084105740
 594   Q   :    0.183215177    0.220732304   -0.099210867
 595   Q   :   -0.279298396    0.068800829    0.010611826
 596   Q   :   -0.091506233    0.221734853    0.174103420
 597   Q   :    0.288540981   -0.039838882   -0.051073222
 598   Q   :   -0.191046272   -0.180007766   -0.112854409
 599   Q   :   -0.054511544    0.261923171   -0.126888232
 600   Q   :    0.247669903   -0.002459039    0.245553041
 601   Q   :   -0.186920495   -0.259184373   -0.112157524
 602   Q   :   -0.164407082   -0.015354571    0.186679276
 603   Q   :    0.152588080    0.212465361   -0.088039193
 604   Q   :    0.012398807   -0.192161501   -0.108348567
 605   Q   :    0.115780771    0.044632197    0.241973706
 606   Q   :   -0.028086837   -0.212832695   -0.137375119
 607   Q   :   -0.072045536    0.159913427   -0.095382692
 608   Q   :   -0.011723840   -0.104595499   -0.256327255
 609   Q   :   -0.002868599   -0.137104098    0.224741430
 610   Q   :    0.024102896    0.236805489    0.027634516
 611   Q   :    0.070008893   -0.009677999   -0.307799761
 612   Q   :    0.141743426   -0.137030337    0.213620455
 613   Q   :   -0.218772344    0.158639318    0.093075924
 614   Q   :   -0.050162159    0.224429614    0.104527567
 615   Q   :    0.130391336   -0.234926832    0.108397086
 616   Q   :   -0.067464501    0.004362658   -0.205366097
 617   Q   :   -0.257440505    0.073669665    0.060006010
 618   Q   :    0.203245837    0.151036835   -0.061460440
 619   Q   :    0.051717281   -0.222286782    0.012775524
 620   Q   :    0.100465569   -0.111378350   -0.248381688
 621   Q   :    0.183808818    0.120781121    0.214846236
 622   Q   :   -0.276429254    0.000251904    0.027882733
 623   Q   :   -0.298281607   -0.106324832   -0.044168791
 624   Q   :    0.173670180   -0.111624737    0.237289320
 625   Q   :    0.130376467    0.223320804   -0.186146776
 626   Q   :    0.059960382    0.062082971    0.292568967
 627   Q   :   -0.249248281   -0.066473005   -0.109745708
 628   Q   :    0.184784286   -0.001682808   -0.178171052
 629   Q   :    0.203661457   -0.000118065    0.161729049
 630   Q   :   -0.153820565    0.237091613   -0.069860596
 631   Q   :   -0.060426512   -0.243318744   -0.091080831
 632   Q   :    0.257640336    0.066209233   -0.013836532
 633   Q   :   -0.177359975   -0.053382103   -0.184322265
 634   Q   :   -0.092159480   -0.011776858    0.198245406
 635   Q   :    0.149580584    0.173476991    0.204526459
 636   Q   :   -0.293177777    0.059722736   -0.057489450
 637   Q   :    0.152176347   -0.239419913   -0.130404017
 638   Q   :    0.223958898    0.035737981    0.138896439
 639   Q   :   -0.052806240   -0.191466773   -0.175091823
 640   Q   :   -0.170997586    0.146444148    0.040695345
 641   Q   :    0.019042921   -0.130191221    0.256370358
 642   Q   :   -0.204743122    0.028708073   -0.168285932
 643   Q   :    0.184070640    0.100539321   -0.079207851
 644   Q   :   -0.274728279   -0.122450537   -0.027233024
 645   Q   :    0.154917557   -0.083069135    0.215979262
 646   Q   :    0.106599231    0.203275204   -0.188458944
 647   Q   :    0.151887177    0.211036506   -0.092726965
 648   Q   :    0.061093839   -0.181083163    0.179996957
 649   Q   :   -0.220052442   -0.029375539   -0.079900474
 650   Q   :    0.190917418    0.039658456   -0.155090432
 651   Q   :   -0.062322607   -0.130626651    0.194256522
 652   Q   :   -0.111631583    0.087702300   -0.033284036

Difference to translation invariance:
           :   -0.0001258118   -0.0003507774   -0.0003208355

Difference to rotation invariance:
           :    0.0059965861    0.0046795668   -0.0057085608

Norm of the cartesian gradient     ...    6.4296197483
RMS gradient                       ...    0.1453787278
MAX gradient                       ...    0.3274020558

-------
TIMINGS
-------

Total SCF gradient time            ...      219.998 sec

One electron gradient       ....      29.126 sec  ( 13.2%)
RI-J Coulomb gradient       ....      11.685 sec  (  5.3%)
COSX gradient               ....     135.916 sec  ( 61.8%)
XC gradient                 ....      17.161 sec  (  7.8%)

Maximum memory used throughout the entire SCFGRAD-calculation: 874.9 MB

                            ***************************************
                            *     ORCA property calculations      *
                            ***************************************

                                    ---------------------
                                    Active property flags
                                    ---------------------
   (+) Dipole Moment


------------------------------------------------------------------------------
                       ORCA ELECTRIC PROPERTIES CALCULATION
------------------------------------------------------------------------------

Dipole Moment Calculation                       ... on
Quadrupole Moment Calculation                   ... off
Polarizability Calculation                      ... off
GBWName                                         ... final077.orca.gbw
Electron density                                ... final077.orca.scfp
The origin for moment calculation is the CENTER OF MASS  = (20.436331, 20.827714 19.275774)

-------------
DIPOLE MOMENT
-------------
                                X             Y             Z
Electronic contribution:     -0.11283      -1.34746      -0.08151
Nuclear contribution   :     11.79713      10.46450      12.38604
                        -----------------------------------------
Total Dipole Moment    :     11.68430       9.11704      12.30453
                        -----------------------------------------
Magnitude (a.u.)       :     19.26252
Magnitude (Debye)      :     48.96145



--------------------
Rotational spectrum 
--------------------
 
Rotational constants in cm-1:     0.001556     0.001367     0.001010 
Rotational constants in MHz :    46.658472    40.994053    30.283328 

 Dipole components along the rotational axes: 
x,y,z [a.u.] :     6.047465    13.741823    12.067946 
x,y,z [Debye]:    15.371434    34.928939    30.674281 

 

Timings for individual modules:

Sum of individual times         ...      978.257 sec (=  16.304 min)
GTO integral calculation        ...       13.999 sec (=   0.233 min)   1.4 %
SCF iterations                  ...      739.589 sec (=  12.326 min)  75.6 %
SCF Gradient evaluation         ...      224.669 sec (=   3.744 min)  23.0 %
                             ****ORCA TERMINATED NORMALLY****
TOTAL RUN TIME: 0 days 0 hours 16 minutes 26 seconds 351 msec
