
                                 *****************
                                 * O   R   C   A *
                                 *****************

                                            #,                                       
                                            ###                                      
                                            ####                                     
                                            #####                                    
                                            ######                                   
                                           ########,                                 
                                     ,,################,,,,,                         
                               ,,#################################,,                 
                          ,,##########################################,,             
                       ,#########################################, ''#####,          
                    ,#############################################,,   '####,        
                  ,##################################################,,,,####,       
                ,###########''''           ''''###############################       
              ,#####''   ,,,,##########,,,,          '''####'''          '####       
            ,##' ,,,,###########################,,,                        '##       
           ' ,,###''''                  '''############,,,                           
         ,,##''                                '''############,,,,        ,,,,,,###''
      ,#''                                            '''#######################'''  
     '                                                          ''''####''''         
             ,#######,   #######,   ,#######,      ##                                
            ,#'     '#,  ##    ##  ,#'     '#,    #''#        ######   ,####,        
            ##       ##  ##   ,#'  ##            #'  '#       #        #'  '#        
            ##       ##  #######   ##           ,######,      #####,   #    #        
            '#,     ,#'  ##    ##  '#,     ,#' ,#      #,         ##   #,  ,#        
             '#######'   ##     ##  '#######'  #'      '#     #####' # '####'        



                  #######################################################
                  #                        -***-                        #
                  #          Department of theory and spectroscopy      #
                  #    Directorship and core code : Frank Neese         #
                  #        Max Planck Institute fuer Kohlenforschung    #
                  #                Kaiser Wilhelm Platz 1               #
                  #                 D-45470 Muelheim/Ruhr               #
                  #                      Germany                        #
                  #                                                     #
                  #                  All rights reserved                #
                  #                        -***-                        #
                  #######################################################


                         Program Version 5.0.3 -  RELEASE  -


 With contributions from (in alphabetic order):
   Daniel Aravena         : Magnetic Suceptibility
   Michael Atanasov       : Ab Initio Ligand Field Theory (pilot matlab implementation)
   Alexander A. Auer      : GIAO ZORA, VPT2 properties, NMR spectrum
   Ute Becker             : Parallelization
   Giovanni Bistoni       : ED, misc. LED, open-shell LED, HFLD
   Martin Brehm           : Molecular dynamics
   Dmytro Bykov           : SCF Hessian
   Vijay G. Chilkuri      : MRCI spin determinant printing, contributions to CSF-ICE
   Dipayan Datta          : RHF DLPNO-CCSD density
   Achintya Kumar Dutta   : EOM-CC, STEOM-CC
   Dmitry Ganyushin       : Spin-Orbit,Spin-Spin,Magnetic field MRCI
   Miquel Garcia          : C-PCM and meta-GGA Hessian, CC/C-PCM, Gaussian charge scheme
   Yang Guo               : DLPNO-NEVPT2, F12-NEVPT2, CIM, IAO-localization
   Andreas Hansen         : Spin unrestricted coupled pair/coupled cluster methods
   Benjamin Helmich-Paris : MC-RPA, TRAH-SCF, COSX integrals
   Lee Huntington         : MR-EOM, pCC
   Robert Izsak           : Overlap fitted RIJCOSX, COSX-SCS-MP3, EOM
   Marcus Kettner         : VPT2
   Christian Kollmar      : KDIIS, OOCD, Brueckner-CCSD(T), CCSD density, CASPT2, CASPT2-K
   Simone Kossmann        : Meta GGA functionals, TD-DFT gradient, OOMP2, MP2 Hessian
   Martin Krupicka        : Initial AUTO-CI
   Lucas Lang             : DCDCAS
   Marvin Lechner         : AUTO-CI (C++ implementation), FIC-MRCC
   Dagmar Lenk            : GEPOL surface, SMD
   Dimitrios Liakos       : Extrapolation schemes; Compound Job, initial MDCI parallelization
   Dimitrios Manganas     : Further ROCIS development; embedding schemes
   Dimitrios Pantazis     : SARC Basis sets
   Anastasios Papadopoulos: AUTO-CI, single reference methods and gradients
   Taras Petrenko         : DFT Hessian,TD-DFT gradient, ASA, ECA, R-Raman, ABS, FL, XAS/XES, NRVS
   Peter Pinski           : DLPNO-MP2, DLPNO-MP2 Gradient
   Christoph Reimann      : Effective Core Potentials
   Marius Retegan         : Local ZFS, SOC
   Christoph Riplinger    : Optimizer, TS searches, QM/MM, DLPNO-CCSD(T), (RO)-DLPNO pert. Triples
   Tobias Risthaus        : Range-separated hybrids, TD-DFT gradient, RPA, STAB
   Michael Roemelt        : Original ROCIS implementation
   Masaaki Saitow         : Open-shell DLPNO-CCSD energy and density
   Barbara Sandhoefer     : DKH picture change effects
   Avijit Sen             : IP-ROCIS
   Kantharuban Sivalingam : CASSCF convergence, NEVPT2, FIC-MRCI
   Bernardo de Souza      : ESD, SOC TD-DFT
   Georgi Stoychev        : AutoAux, RI-MP2 NMR, DLPNO-MP2 response
   Willem Van den Heuvel  : Paramagnetic NMR
   Boris Wezisla          : Elementary symmetry handling
   Frank Wennmohs         : Technical directorship


 We gratefully acknowledge several colleagues who have allowed us to
 interface, adapt or use parts of their codes:
   Stefan Grimme, W. Hujo, H. Kruse, P. Pracht,  : VdW corrections, initial TS optimization,
                  C. Bannwarth, S. Ehlert          DFT functionals, gCP, sTDA/sTD-DF
   Ed Valeev, F. Pavosevic, A. Kumar             : LibInt (2-el integral package), F12 methods
   Garnet Chan, S. Sharma, J. Yang, R. Olivares  : DMRG
   Ulf Ekstrom                                   : XCFun DFT Library
   Mihaly Kallay                                 : mrcc  (arbitrary order and MRCC methods)
   Jiri Pittner, Ondrej Demel                    : Mk-CCSD
   Frank Weinhold                                : gennbo (NPA and NBO analysis)
   Christopher J. Cramer and Donald G. Truhlar   : smd solvation model
   Lars Goerigk                                  : TD-DFT with DH, B97 family of functionals
   V. Asgeirsson, H. Jonsson                     : NEB implementation
   FAccTs GmbH                                   : IRC, NEB, NEB-TS, DLPNO-Multilevel, CI-OPT
                                                   MM, QMMM, 2- and 3-layer-ONIOM, Crystal-QMMM,
                                                   LR-CPCM, SF, NACMEs, symmetry and pop. for TD-DFT,
                                                   nearIR, NL-DFT gradient (VV10), updates on ESD,
                                                   ML-optimized integration grids
   S Lehtola, MJT Oliveira, MAL Marques          : LibXC Library
   Liviu Ungur et al                             : ANISO software


 Your calculation uses the libint2 library for the computation of 2-el integrals
 For citations please refer to: http://libint.valeyev.net

 Your ORCA version has been built with support for libXC version: 5.1.0
 For citations please refer to: https://tddft.org/programs/libxc/

 This ORCA versions uses:
   CBLAS   interface :  Fast vector & matrix operations
   LAPACKE interface :  Fast linear algebra routines
   SCALAPACK package :  Parallel linear algebra routines
   Shared memory     :  Shared parallel matrices
   BLAS/LAPACK       :  OpenBLAS 0.3.15  USE64BITINT DYNAMIC_ARCH NO_AFFINITY SkylakeX SINGLE_THREADED
        Core in use  :  SkylakeX
   Copyright (c) 2011-2014, The OpenBLAS Project


================================================================================

----- Orbital basis set information -----
Your calculation utilizes the basis: def2-SVP
   F. Weigend and R. Ahlrichs, Phys. Chem. Chem. Phys. 7, 3297 (2005).

The basis set includes element-specific modifications.

Your calculation utilizes the basis: aug-cc-pVTZ 
    H, B-Ne : Obtained from the ccRepo (grant-hill.group.shef.ac.uk/ccrepo) Feb. 2017
              R. A. Kendall, T. H. Dunning, Jr., R. J. Harrison, J. Chem. Phys. 96, 6796 (1992)
         He : Obtained from the ccRepo (grant-hill.group.shef.ac.uk/ccrepo) Feb. 2017
              D. E. Woon, T. H. Dunning, Jr., J. Chem. Phys. 100, 2975 (1994)
  Li-Be, Na : Obtained from the ccRepo (grant-hill.group.shef.ac.uk/ccrepo) Feb. 2017
              B. P. Prascher, D. E. Woon, K. A. Peterson, T. H. Dunning, Jr., A. K. Wilson, Theor. Chem. Acc. 128, 69 (2011)
         Mg : Obtained from the Peterson Research Group Website (tyr0.chem.wsu.edu/~kipeters) Feb. 2017
              B. P. Prascher, D. E. Woon, K. A. Peterson, T. H. Dunning, Jr., A. K. Wilson, Theor. Chem. Acc. 128, 69 (2011)
      Al-Ar : Obtained from the ccRepo (grant-hill.group.shef.ac.uk/ccrepo) Feb. 2017
              D. E. Woon, T. H. Dunning, Jr., J. Chem. Phys. 98, 1358 (1993)
      Sc-Zn : Obtained from the ccRepo (grant-hill.group.shef.ac.uk/ccrepo) Feb. 2017
              N. B. Balabanov, K. A. Peterson, J. Chem. Phys. 123, 064107 (2005)
              N. B. Balabanov, K. A. Peterson, J. Chem. Phys. 125, 074110 (2006)
      Ga-Kr : Obtained from the ccRepo (grant-hill.group.shef.ac.uk/ccrepo) Feb. 2017
              A. K. Wilson, D. E. Woon, K. A. Peterson, T. H. Dunning, Jr., J. Chem. Phys. 110, 7667 (1999)
     Ag, Au : Obtained from the Peterson Research Group Website (tyr0.chem.wsu.edu/~kipeters) Feb. 2017
              K. A. Peterson, C. Puzzarini, Theor. Chem. Acc. 114, 283 (2005)

Your calculation utilizes the basis: cc-pVTZ 
       H, B-Ne : Obtained from the ccRepo (grant-hill.group.shef.ac.uk/ccrepo) Feb. 2017
                 T. H. Dunning, Jr., J. Chem. Phys. 90, 1007 (1989)
            He : Obtained from the ccRepo (grant-hill.group.shef.ac.uk/ccrepo) Feb. 2017
                 D. E. Woon, T. H. Dunning, Jr., J. Chem. Phys. 100, 2975 (1994)
  Li-Be, Na-Mg : Obtained from the ccRepo (grant-hill.group.shef.ac.uk/ccrepo) Feb. 2017
                 B. P. Prascher, D. E. Woon, K. A. Peterson, T. H. Dunning, Jr., A. K. Wilson, Theor. Chem. Acc. 128, 69 (2011)
         Al-Ar : Obtained from the ccRepo (grant-hill.group.shef.ac.uk/ccrepo) Feb. 2017
                 D. E. Woon, T. H. Dunning, Jr., J. Chem. Phys. 98, 1358 (1993)
            Ca : Obtained from the Peterson Research Group Website (tyr0.chem.wsu.edu/~kipeters) Feb. 2017
                 J. Koput, K. A. Peterson, J. Phys. Chem. 106, 9595 (2002)
         Sc-Zn : Obtained from the ccRepo (grant-hill.group.shef.ac.uk/ccrepo) Feb. 2017
                 N. B. Balabanov, K. A. Peterson, J. Chem. Phys. 123, 064107 (2005)
                 N. B. Balabanov, K. A. Peterson, J. Chem. Phys. 125, 074110 (2006)
         Ga-Kr : Obtained from the ccRepo (grant-hill.group.shef.ac.uk/ccrepo) Feb. 2017
                 A. K. Wilson, D. E. Woon, K. A. Peterson, T. H. Dunning, Jr., J. Chem. Phys. 110, 7667 (1999)
             Y : Obtained from the ccRepo (grant-hill.group.shef.ac.uk/ccrepo) Feb. 2017
                 K. A. Peterson, D. Figgen, M. Dolg, H. Stoll, J. Chem. Phys. 126, 124101 (2007)
        Ag, Au : Obtained from the Peterson Research Group Website (tyr0.chem.wsu.edu/~kipeters) Feb. 2017
                 K. A. Peterson, C. Puzzarini, Theor. Chem. Acc. 114, 283 (2005)

----- AuxJ basis set information -----
Your calculation utilizes the auxiliary basis: def2/J
   F. Weigend, Phys. Chem. Chem. Phys. 8, 1057 (2006).

================================================================================
                                        WARNINGS
                       Please study these warnings very carefully!
================================================================================

WARNING: The globally-selected AuxJ basis set is optimized for use with ECPs
         Make sure a suitable alternative is explicitly given all heavy elements (Z>36)

INFO   : the flag for use of the SHARK integral package has been found!

================================================================================
                                       INPUT FILE
================================================================================
NAME = final006.orca.inp
|  1> ! NoMOPrint PrintBasis #MINIPRINT SMALLPRINT LARGEPRINT
|  2> ! ALLPOP XYZFILE
|  3> #! BP86 3-21G   TightSCF
|  4> ! ENGRAD
|  5> ! B3LYP NormalPNO PModel #DecontractAux
|  6> #! VerySlowConv 
|  7>  %maxcore 5000
|  8>  %scf  maxiter   500  end 
|  9> 
| 10> %pal
| 11>     nprocs 32
| 12> end
| 13> 
| 14> %basis
| 15>     NewGTO O    # New basis for oxygen
| 16>         "aug-cc-pVTZ"
| 17>     end
| 18>     NewGTO C    # New basis for carbon
| 19>         "aug-cc-pVTZ"
| 20>     end
| 21>     NewGTO H    # New basis for hydrogen
| 22>         "cc-pVTZ"
| 23>     end
| 24> end
| 25> 
| 26> * xyz 0   1
| 27>   C  12.12  10.69  9.51  #1
| 28>   H  13.06  11.18  9.04  #2
| 29>   H  11.21  11.06  8.98  #3
| 30>   C  11.98  11.17  10.97  #4
| 31>   H  11.99  10.26  11.6  #5
| 32>   H  12.92  11.72  11.13  #6
| 33>   C  10.74  12.06  11.27  #7
| 34>   H  10.73  12.94  10.64  #8
| 35>   H  10.83  12.39  12.28  #9
| 36>   C  9.4  11.53  10.97  #10
| 37>   H  9.35  11.16  9.96  #11
| 38>   H  8.7  12.36  11.01  #12
| 39>   O  9.07  10.44  11.8  #13
| 40>   H  9.05  10.75  12.77  #14
| 41>   O  12.18  9.23  9.35  #15
| 42>   H  11.34  8.82  9.66  #16
| 43>   O  6.7  10.37  8.22  #17
| 44>   H  6.7  11.05  8.87  #18
| 45>   H  5.88  10.5  7.67  #19
| 46>   O  11.6  15.58  11.08  #20
| 47>   H  12.43  16.02  10.88  #21
| 48>   H  11.73  15.14  11.93  #22
| 49>   O  9.67  8.25  8.92  #23
| 50>   H  9.35  8.97  8.32  #24
| 51>   H  8.95  8.1  9.6  #25
| 52>   O  8.46  7.63  11.41  #26
| 53>   H  7.49  7.52  11.49  #27
| 54>   H  8.69  8.54  11.73  #28
| 55>   O  13.39  6.44  9.49  #29
| 56>   H  13.2  7.39  9.66  #30
| 57>   H  12.53  6.16  9.06  #31
| 58>   O  6.97  13.16  9.46  #32
| 59>   H  7.82  13.61  9.61  #33
| 60>   H  6.58  13.45  8.64  #34
| 61>   O  8.83  10.89  14.38  #35
| 62>   H  9.71  10.74  14.71  #36
| 63>   H  8.5  10.03  14.64  #37
| 64>   O  13.49  18.07  10.6  #38
| 65>   H  13.01  18.77  10.15  #39
| 66>   H  14.18  17.95  9.89  #40
| 67>   O  15.2  4.87  10.97  #41
| 68>   H  15.67  5.24  11.72  #42
| 69>   H  14.54  5.55  10.8  #43
| 70>   O  9.38  14.87  9.7  #44
| 71>   H  8.65  15.37  10.08  #45
| 72>   H  10.1  15.21  10.24  #46
| 73>   O  12.96  8.04  12.08  #47
| 74>   H  12.24  7.39  11.94  #48
| 75>   H  13.59  7.61  12.62  #49
| 76>   O  5.32  10.16  6  #50
| 77>   H  4.93  9.39  5.52  #51
| 78>   H  4.99  10.92  5.52  #52
| 79>   O  6.17  11.92  11.89  #53
| 80>   H  6.32  12.49  11.14  #54
| 81>   H  5.8  12.46  12.63  #55
| 82>   O  11.06  6.33  7.64  #56
| 83>   H  11.22  6.89  6.91  #57
| 84>   H  10.4  6.92  8.09  #58
| 85>   O  14.77  10.3  12.25  #59
| 86>   H  14.18  9.58  11.91  #60
| 87>   H  14.66  10.35  13.16  #61
| 88>   O  8.35  5.31  8.54  #62
| 89>   H  9.27  5.07  8.39  #63
| 90>   H  8.28  6.19  8.09  #64
| 91>   O  13.65  13.92  9.27  #65
| 92>   H  14.35  13.26  9.45  #66
| 93>   H  13.16  14.14  10.06  #67
| 94>   O  8.85  13.71  14.08  #68
| 95>   H  8.42  12.87  14.03  #69
| 96>   H  8.31  14.31  13.63  #70
| 97>   O  10.51  18.12  11.69  #71
| 98>   H  10.79  17.24  11.9  #72
| 99>   H  9.64  18.18  12.15  #73
|100>   O  14.66  6.27  6.62  #74
|101>   H  14.4  5.69  7.37  #75
|102>   H  14.62  5.67  5.89  #76
|103>   O  11.98  11.33  6.08  #77
|104>   H  11.23  11.14  5.45  #78
|105>   H  12.19  10.53  6.5  #79
|106>   O  15.58  11.98  9.79  #80
|107>   H  16.14  11.72  9.04  #81
|108>   H  15.41  11.3  10.42  #82
|109>   O  5.81  6.46  11.26  #83
|110>   H  5.93  5.48  11.11  #84
|111>   H  5.2  6.44  12.01  #85
|112>   O  13.36  13.54  6.63  #86
|113>   H  13.29  12.6  6.49  #87
|114>   H  13.27  13.75  7.54  #88
|115>   O  11.8  15.26  13.99  #89
|116>   H  12.75  14.97  14.03  #90
|117>   H  11.36  14.77  14.68  #91
|118>   O  5.12  9.53  11.79  #92
|119>   H  5.64  10.36  11.74  #93
|120>   H  5.61  9.03  11.1  #94
|121>   O  9.95  13.31  7.43  #95
|122>   H  9.9  13.83  8.23  #96
|123>   H  10.81  13.42  7.02  #97
|124>   O  9.31  10.47  7.29  #98
|125>   H  9.79  11.34  7.4  #99
|126>   H  8.4  10.63  7.59  #100
|127>   O  11.09  8.93  14.32  #101
|128>   H  11.23  8.96  13.37  #102
|129>   H  10.58  8.15  14.54  #103
|130>   O  10.65  6.02  11.94  #104
|131>   H  10.83  5.69  12.81  #105
|132>   H  9.92  6.61  11.95  #106
|133>   O  13.38  8.83  7.04  #107
|134>   H  13.59  7.94  6.8  #108
|135>   H  13.05  8.79  7.99  #109
|136>   Q  0.6645  15.3$  14.08$  6.43$
|137>   Q  0.6645  16.62$  13.33$  6.64$
|138>   Q  -1.3290  16.13$  14.01$  6.56$
|139>   Q  0.6645  7.21$  16.48$  5.25$
|140>   Q  0.6645  7.91$  15.24$  5.78$
|141>   Q  -1.3290  7.81$  16.1$  5.65$
|142>   Q  0.6645  13.84$  11.1$  15.47$
|143>   Q  0.6645  14.54$  12.21$  14.69$
|144>   Q  -1.3290  14.4$  11.41$  14.94$
|145>   Q  0.6645  8.15$  20.53$  10.43$
|146>   Q  0.6645  7.06$  21.54$  10.1$
|147>   Q  -1.3290  7.46$  20.96$  10.58$
|148>   Q  0.6645  4.27$  17.92$  5.67$
|149>   Q  0.6645  4.57$  17.37$  6.93$
|150>   Q  -1.3290  4.78$  17.78$  6.27$
|151>   Q  0.6645  6.72$  17.3$  10.5$
|152>   Q  0.6645  7.93$  17.18$  9.65$
|153>   Q  -1.3290  7.26$  16.88$  10.05$
|154>   Q  0.6645  9.56$  5.05$  18.43$
|155>   Q  0.6645  9.94$  3.68$  17.84$
|156>   Q  -1.3290  9.49$  4.39$  17.92$
|157>   Q  0.6645  18.16$  17.6$  11.35$
|158>   Q  0.6645  16.6$  17.42$  11.12$
|159>   Q  -1.3290  17.33$  17.82$  11.32$
|160>   Q  0.6645  3.55$  4.8$  16.39$
|161>   Q  0.6645  3.39$  6.29$  15.98$
|162>   Q  -1.3290  3.59$  5.63$  16.47$
|163>   Q  0.6645  5.81$  8.86$  16.73$
|164>   Q  0.6645  5.31$  8.25$  15.31$
|165>   Q  -1.3290  5.42$  8.85$  15.96$
|166>   Q  0.6645  1.97$  7.2$  14.31$
|167>   Q  0.6645  3.08$  8.3$  14.31$
|168>   Q  -1.3290  2.66$  7.6$  14.57$
|169>   Q  0.6645  15.3$  9.89$  1.5$
|170>   Q  0.6645  15.1$  11.28$  0.78$
|171>   Q  -1.3290  15.23$  10.75$  1.43$
|172>   Q  0.6645  4.11$  11.87$  3.59$
|173>   Q  0.6645  4.1$  13.21$  4.37$
|174>   Q  -1.3290  4.39$  12.44$  4.16$
|175>   Q  0.6645  14.32$  10.96$  4.58$
|176>   Q  0.6645  15.7$  10.65$  4.28$
|177>   Q  -1.3290  15.11$  10.95$  4.76$
|178>   Q  0.6645  18.32$  12.09$  14.63$
|179>   Q  0.6645  17.82$  13.23$  15.4$
|180>   Q  -1.3290  18.2$  12.89$  14.76$
|181>   Q  0.6645  6.82$  12.29$  19.63$
|182>   Q  0.6645  6.85$  13.87$  19.87$
|183>   Q  -1.3290  6.51$  13.11$  19.7$
|184>   Q  0.6645  8.69$  17.46$  16.12$
|185>   Q  0.6645  8.01$  16.24$  16.75$
|186>   Q  -1.3290  8.63$  16.76$  16.58$
|187>   Q  0.6645  15.39$  9.38$  19.8$
|188>   Q  0.6645  16.17$  10.69$  19.27$
|189>   Q  -1.3290  16$  9.83$  19.4$
|190>   Q  0.6645  11.16$  4.85$  14.98$
|191>   Q  0.6645  12.1$  5.97$  14.63$
|192>   Q  -1.3290  11.37$  5.6$  14.71$
|193>   Q  0.6645  3.97$  11.75$  17.25$
|194>   Q  0.6645  4.08$  10.23$  16.69$
|195>   Q  -1.3290  3.69$  10.96$  17.02$
|196>   Q  0.6645  7.69$  6.06$  4.89$
|197>   Q  0.6645  8.03$  7.48$  5.3$
|198>   Q  -1.3290  8.08$  6.62$  5.35$
|199>   Q  0.6645  13.22$  9.62$  20.92$
|200>   Q  0.6645  12.5$  10.45$  19.87$
|201>   Q  -1.3290  13.03$  10.31$  20.5$
|202>   Q  0.6645  19.95$  11.94$  11.69$
|203>   Q  0.6645  21.34$  12.46$  11.94$
|204>   Q  -1.3290  20.59$  12.15$  12.17$
|205>   Q  0.6645  13.26$  8.91$  5.07$
|206>   Q  0.6645  12.34$  7.74$  4.46$
|207>   Q  -1.3290  13.02$  8.27$  4.53$
|208>   Q  0.6645  12.69$  5.39$  2.9$
|209>   Q  0.6645  11.88$  5.97$  1.78$
|210>   Q  -1.3290  12.02$  5.46$  2.41$
|211>   Q  0.6645  17.83$  10.14$  15.73$
|212>   Q  0.6645  19.37$  10.32$  15.77$
|213>   Q  -1.3290  18.62$  10.22$  15.43$
|214>   Q  0.6645  9.94$  2.38$  9.71$
|215>   Q  0.6645  10.31$  0.96$  9.79$
|216>   Q  -1.3290  9.79$  1.57$  9.61$
|217>   Q  0.6645  12.61$  2.49$  6.55$
|218>   Q  0.6645  12.51$  0.96$  6.69$
|219>   Q  -1.3290  12.89$  1.72$  6.78$
|220>   Q  0.6645  15.59$  0.9$  4.52$
|221>   Q  0.6645  14.71$  1.55$  5.63$
|222>   Q  -1.3290  15.43$  1.35$  5.24$
|223>   Q  0.6645  14.22$  6.89$  20.87$
|224>   Q  0.6645  13.79$  7.12$  19.34$
|225>   Q  -1.3290  13.96$  7.34$  20.18$
|226>   Q  0.6645  12.25$  9.33$  15.52$
|227>   Q  0.6645  13.53$  8.83$  16.38$
|228>   Q  -1.3290  12.85$  9.32$  16.2$
|229>   Q  0.6645  6.68$  5.22$  17.33$
|230>   Q  0.6645  5.21$  5.63$  17.51$
|231>   Q  -1.3290  6.03$  5.51$  17.79$
|232>   Q  0.6645  15.79$  0.25$  9.9$
|233>   Q  0.6645  14.67$  1.17$  10.24$
|234>   Q  -1.3290  15.02$  0.52$  9.83$
|235>   Q  0.6645  14.62$  18.15$  3.93$
|236>   Q  0.6645  14.66$  18.52$  2.46$
|237>   Q  -1.3290  14.35$  18.12$  3.12$
|238>   Q  0.6645  7.86$  13.98$  16.12$
|239>   Q  0.6645  6.74$  13.61$  17.11$
|240>   Q  -1.3290  7.18$  14.14$  16.63$
|241>   Q  0.6645  3.13$  15.44$  9.65$
|242>   Q  0.6645  4.5$  15.14$  9.45$
|243>   Q  -1.3290  3.75$  14.96$  9.76$
|244>   Q  0.6645  13.23$  20.01$  13.13$
|245>   Q  0.6645  11.97$  19.03$  12.83$
|246>   Q  -1.3290  12.45$  19.65$  13.27$
|247>   Q  0.6645  11.8$  13.51$  0.84$
|248>   Q  0.6645  12.89$  14.42$  1.47$
|249>   Q  -1.3290  12.13$  14.04$  1.4$
|250>   Q  0.6645  19.1$  15.53$  12.14$
|251>   Q  0.6645  19.8$  16.85$  12.71$
|252>   Q  -1.3290  19.51$  16.3$  12.14$
|253>   Q  0.6645  12.68$  20.32$  6.44$
|254>   Q  0.6645  11.98$  21.29$  5.43$
|255>   Q  -1.3290  12.18$  20.96$  6.17$
|256>   Q  0.6645  1.35$  12.97$  14.85$
|257>   Q  0.6645  1.75$  13.64$  13.62$
|258>   Q  -1.3290  1.9$  13.15$  14.26$
|259>   Q  0.6645  11.19$  17.36$  5.86$
|260>   Q  0.6645  11.82$  16.2$  5.22$
|261>   Q  -1.3290  11.84$  16.92$  5.61$
|262>   Q  0.6645  10.76$  20.8$  16.07$
|263>   Q  0.6645  11.8$  20.3$  15.1$
|264>   Q  -1.3290  11.52$  20.62$  15.84$
|265>   Q  0.6645  6.61$  15.62$  12.49$
|266>   Q  0.6645  7.91$  16.37$  12.21$
|267>   Q  -1.3290  7.42$  15.76$  12.56$
|268>   Q  0.6645  4.36$  6.86$  14.24$
|269>   Q  0.6645  5.52$  5.84$  14.02$
|270>   Q  -1.3290  5.14$  6.62$  13.99$
|271>   Q  0.6645  13.74$  11.07$  2.69$
|272>   Q  0.6645  12.26$  11.73$  2.75$
|273>   Q  -1.3290  12.93$  11.26$  2.99$
|274>   Q  0.6645  5.08$  3.28$  15.62$
|275>   Q  0.6645  4.6$  2.4$  16.69$
|276>   Q  -1.3290  4.48$  2.94$  16.06$
|277>   Q  0.6645  6.31$  11.47$  16.07$
|278>   Q  0.6645  6.87$  10.53$  17.01$
|279>   Q  -1.3290  6.69$  11.28$  16.76$
|280>   Q  0.6645  15.18$  15.58$  12.11$
|281>   Q  0.6645  16.15$  14.38$  11.63$
|282>   Q  -1.3290  15.4$  14.83$  11.76$
|283>   Q  0.6645  1.83$  17.12$  8.12$
|284>   Q  0.6645  1.37$  16.91$  9.56$
|285>   Q  -1.3290  1.81$  16.74$  8.85$
|286>   Q  0.6645  14.26$  17.66$  12.46$
|287>   Q  0.6645  14.6$  16.76$  13.69$
|288>   Q  -1.3290  14.72$  17.13$  12.93$
|289>   Q  0.6645  16.57$  7.39$  16.06$
|290>   Q  0.6645  16.22$  5.91$  16.2$
|291>   Q  -1.3290  16.36$  6.69$  16.47$
|292>   Q  0.6645  13.53$  18.13$  5.88$
|293>   Q  0.6645  14.49$  18.68$  6.82$
|294>   Q  -1.3290  14.12$  18.67$  6.11$
|295>   Q  0.6645  5.95$  15.59$  7.21$
|296>   Q  0.6645  6.1$  16.05$  8.74$
|297>   Q  -1.3290  5.7$  15.82$  8.01$
|298>   Q  0.6645  17.97$  11.54$  10.46$
|299>   Q  0.6645  18.96$  11.11$  9.54$
|300>   Q  -1.3290  18.69$  11.62$  10.09$
|301>   Q  0.6645  1.42$  15.77$  6.54$
|302>   Q  0.6645  1.77$  14.28$  6.92$
|303>   Q  -1.3290  1.45$  14.91$  6.45$
|304>   Q  0.6645  3.87$  7.57$  5.29$
|305>   Q  0.6645  3.3$  6.27$  5.61$
|306>   Q  -1.3290  3.55$  7.06$  5.81$
|307>   Q  0.6645  11.6$  8.89$  18.19$
|308>   Q  0.6645  10.41$  8.61$  19.07$
|309>   Q  -1.3290  11.01$  9.1$  18.72$
|310>   Q  0.6645  8.8$  11.13$  21.56$
|311>   Q  0.6645  8.4$  9.97$  22.38$
|312>   Q  -1.3290  8.29$  10.52$  21.77$
|313>   Q  0.6645  18.45$  13.45$  11.15$
|314>   Q  0.6645  18.37$  13.6$  12.77$
|315>   Q  -1.3290  18.2$  13.79$  11.92$
|316>   Q  0.6645  11.36$  20.72$  10.73$
|317>   Q  0.6645  11.23$  20.94$  12.16$
|318>   Q  -1.3290  11.01$  21.05$  11.4$
|319>   Q  0.6645  5.99$  7.11$  19.45$
|320>   Q  0.6645  5.3$  8.44$  19.98$
|321>   Q  -1.3290  5.54$  7.6$  20.02$
|322>   Q  0.6645  2.63$  15.35$  3.61$
|323>   Q  0.6645  3.06$  15.05$  5.08$
|324>   Q  -1.3290  3.15$  15.08$  4.24$
|325>   Q  0.6645  4.86$  9.43$  3.31$
|326>   Q  0.6645  5.49$  8.08$  2.7$
|327>   Q  -1.3290  5.18$  8.62$  3.31$
|328>   Q  0.6645  13.67$  5.7$  17.82$
|329>   Q  0.6645  14.8$  6.64$  17.51$
|330>   Q  -1.3290  13.99$  6.43$  17.63$
|331>   Q  0.6645  14.54$  11.91$  20.39$
|332>   Q  0.6645  14.97$  12.73$  19.24$
|333>   Q  -1.3290  15.1$  12.41$  19.99$
|334>   Q  0.6645  7.63$  7.75$  14.24$
|335>   Q  0.6645  8.43$  6.7$  14.76$
|336>   Q  -1.3290  8.23$  7.49$  14.67$
|337>   Q  0.6645  15.4$  7.43$  1.03$
|338>   Q  0.6645  16.56$  8.29$  0.36$
|339>   Q  -1.3290  15.92$  8.14$  0.92$
|340>   Q  0.6645  12.42$  21.1$  8.33$
|341>   Q  0.6645  13.44$  21.22$  9.44$
|342>   Q  -1.3290  12.74$  20.96$  9.09$
|343>   Q  0.6645  2.56$  12.27$  8.11$
|344>   Q  0.6645  3.47$  13.41$  8.35$
|345>   Q  -1.3290  2.91$  12.99$  7.91$
|346>   Q  0.6645  19.63$  15.91$  10.16$
|347>   Q  0.6645  18.27$  15.63$  9.35$
|348>   Q  -1.3290  19.13$  15.73$  9.47$
|349>   Q  0.6645  15.32$  5.67$  3.68$
|350>   Q  0.6645  14.12$  6.57$  3.99$
|351>   Q  -1.3290  14.47$  5.86$  3.74$
|352>   Q  0.6645  5.77$  2.37$  10.87$
|353>   Q  0.6645  5.36$  0.91$  10.59$
|354>   Q  -1.3290  5.72$  1.57$  11.04$
|355>   Q  0.6645  1.88$  9.83$  16.78$
|356>   Q  0.6645  1.74$  8.76$  15.8$
|357>   Q  -1.3290  1.54$  9.18$  16.42$
|358>   Q  0.6645  8.03$  19.66$  12.51$
|359>   Q  0.6645  7.58$  18.51$  13.5$
|360>   Q  -1.3290  7.95$  18.84$  12.79$
|361>   Q  0.6645  8.28$  8.49$  17.9$
|362>   Q  0.6645  8.01$  8.23$  16.52$
|363>   Q  -1.3290  7.84$  8.6$  17.22$
|364>   Q  0.6645  11$  3.54$  5.53$
|365>   Q  0.6645  11.08$  4.76$  6.39$
|366>   Q  -1.3290  11.41$  4.1$  6$
|367>   Q  0.6645  10.57$  12.61$  20.45$
|368>   Q  0.6645  10.88$  11.74$  21.55$
|369>   Q  -1.3290  10.45$  12.31$  21.19$
|370>   Q  0.6645  18.94$  7.03$  9.1$
|371>   Q  0.6645  19.9$  7.61$  10.11$
|372>   Q  -1.3290  19.64$  7.45$  9.34$
|373>   Q  0.6645  16.59$  3.81$  15.04$
|374>   Q  0.6645  16.93$  3.5$  16.55$
|375>   Q  -1.3290  16.99$  3.92$  15.8$
|376>   Q  0.6645  8.92$  1.37$  13.28$
|377>   Q  0.6645  9.89$  0.99$  12.24$
|378>   Q  -1.3290  9.58$  1.5$  12.82$
|379>   Q  0.6645  1.21$  16.17$  12.37$
|380>   Q  0.6645  2.53$  15.53$  12.74$
|381>   Q  -1.3290  1.74$  15.77$  12.87$
|382>   Q  0.6645  10.5$  14.58$  19.04$
|383>   Q  0.6645  10.01$  13.36$  18.42$
|384>   Q  -1.3290  10.06$  13.88$  19.02$
|385>   Q  0.6645  8.59$  7.23$  20.11$
|386>   Q  0.6645  8.6$  8.71$  20.6$
|387>   Q  -1.3290  8.63$  8.07$  20$
|388>   Q  0.6645  19.56$  9.19$  8.26$
|389>   Q  0.6645  19.83$  10.38$  7.31$
|390>   Q  -1.3290  19.38$  9.94$  7.95$
|391>   Q  0.6645  14.12$  16.27$  2.55$
|392>   Q  0.6645  14.8$  14.81$  2.38$
|393>   Q  -1.3290  14.29$  15.51$  2.21$
|394>   Q  0.6645  16.29$  16.02$  5.38$
|395>   Q  0.6645  15.94$  17.57$  5.67$
|396>   Q  -1.3290  16.37$  16.89$  5.34$
|397>   Q  0.6645  17.59$  2.29$  9.76$
|398>   Q  0.6645  16.32$  1.94$  8.81$
|399>   Q  -1.3290  17.14$  1.98$  9.09$
|400>   Q  0.6645  12.76$  3.22$  13.51$
|401>   Q  0.6645  13.1$  3.26$  12.07$
|402>   Q  -1.3290  13.26$  3.41$  12.87$
|403>   Q  0.6645  15.83$  18.95$  8.98$
|404>   Q  0.6645  15.88$  17.43$  8.78$
|405>   Q  -1.3290  15.54$  18.18$  8.75$
|406>   Q  0.6645  11.27$  7.79$  0.57$
|407>   Q  0.6645  12.28$  7.39$  -0.4$
|408>   Q  -1.3290  11.68$  7.22$  0.11$
|409>   Q  0.6645  21.89$  10.61$  4.72$
|410>   Q  0.6645  20.59$  11.2$  4.52$
|411>   Q  -1.3290  21.37$  11.22$  4.78$
|412>   Q  0.6645  5.92$  18.75$  14.91$
|413>   Q  0.6645  6.51$  19.67$  15.89$
|414>   Q  -1.3290  6.55$  19.18$  15.19$
|415>   Q  0.6645  10.13$  12.94$  4.4$
|416>   Q  0.6645  8.98$  11.95$  3.96$
|417>   Q  -1.3290  9.73$  12.18$  4.32$
|418>   Q  0.6645  11.93$  2.07$  15.44$
|419>   Q  0.6645  10.8$  2.31$  14.4$
|420>   Q  -1.3290  11.49$  2.51$  14.89$
|421>   Q  0.6645  12.2$  16.82$  14.72$
|422>   Q  0.6645  12.47$  18.32$  14.63$
|423>   Q  -1.3290  12.45$  17.56$  15.01$
|424>   Q  0.6645  18.34$  10.64$  3.96$
|425>   Q  0.6645  18.7$  11.93$  4.59$
|426>   Q  -1.3290  18.74$  11.1$  4.48$
|427>   Q  0.6645  18.12$  17.32$  6.53$
|428>   Q  0.6645  18.82$  17.11$  7.81$
|429>   Q  -1.3290  18.48$  17.59$  7.21$
|430>   Q  0.6645  4.95$  13.47$  18.41$
|431>   Q  0.6645  3.52$  13.59$  18.59$
|432>   Q  -1.3290  4.19$  13.58$  18.14$
|433>   Q  0.6645  17$  3.42$  5.49$
|434>   Q  0.6645  17.68$  4.09$  4.32$
|435>   Q  -1.3290  17.16$  4.06$  5$
|436>   Q  0.6645  4.06$  7.27$  8.18$
|437>   Q  0.6645  4.68$  6.63$  9.37$
|438>   Q  -1.3290  4.05$  6.91$  8.92$
|439>   Q  0.6645  8.6$  4.64$  15.95$
|440>   Q  0.6645  8.18$  4.43$  14.48$
|441>   Q  -1.3290  8.1$  4.74$  15.25$
|442>   Q  0.6645  0.11$  11.71$  7.86$
|443>   Q  0.6645  0.44$  11.15$  6.51$
|444>   Q  -1.3290  0.49$  11.17$  7.35$
|445>   Q  0.6645  17.86$  14.05$  4.88$
|446>   Q  0.6645  19.34$  14.39$  5.03$
|447>   Q  -1.3290  18.69$  13.88$  4.9$
|448>   Q  0.6645  11.98$  9.25$  2.25$
|449>   Q  0.6645  10.44$  9.01$  2$
|450>   Q  -1.3290  11.28$  9.08$  1.79$
|451>   Q  0.6645  17.31$  18.53$  13.07$
|452>   Q  0.6645  17.05$  18.16$  14.52$
|453>   Q  -1.3290  17.35$  18.63$  13.9$
|454>   Q  0.6645  3.77$  9.89$  12.79$
|455>   Q  0.6645  2.91$  10.82$  13.6$
|456>   Q  -1.3290  3.11$  10.09$  13.24$
|457>   Q  0.6645  4.78$  14.65$  13.19$
|458>   Q  0.6645  4.1$  14.82$  11.71$
|459>   Q  -1.3290  4.43$  15.06$  12.51$
|460>   Q  0.6645  9.48$  1.67$  4.46$
|461>   Q  0.6645  8.97$  2.25$  5.75$
|462>   Q  -1.3290  9.45$  2.24$  5.06$
|463>   Q  0.6645  22.57$  9.64$  13.37$
|464>   Q  0.6645  21.28$  10.45$  13.03$
|465>   Q  -1.3290  21.76$  9.89$  13.42$
|466>   Q  0.6645  15.48$  12.99$  4.11$
|467>   Q  0.6645  16.53$  13.16$  3.04$
|468>   Q  -1.3290  15.92$  13.44$  3.58$
|469>   Q  0.6645  6.76$  20.28$  6.6$
|470>   Q  0.6645  6.46$  18.71$  6.35$
|471>   Q  -1.3290  6.94$  19.47$  6.42$
|472>   Q  0.6645  6.36$  3.83$  12.95$
|473>   Q  0.6645  5.08$  3.24$  13.04$
|474>   Q  -1.3290  5.6$  3.86$  13.12$
|475>   Q  0.6645  14.49$  14.05$  13.09$
|476>   Q  0.6645  14.8$  14.4$  14.58$
|477>   Q  -1.3290  14.31$  14.1$  13.91$
|478>   Q  0.6645  4.7$  10.7$  20.23$
|479>   Q  0.6645  3.88$  10.18$  18.99$
|480>   Q  -1.3290  4.49$  10.19$  19.59$
|481>   Q  0.6645  13.48$  2.48$  9.01$
|482>   Q  0.6645  14.11$  3.6$  9.95$
|483>   Q  -1.3290  13.58$  2.97$  9.73$
|484>   Q  0.6645  20.25$  13.22$  15.2$
|485>   Q  0.6645  21.12$  12.52$  14.18$
|486>   Q  -1.3290  20.95$  12.89$  14.92$
|487>   Q  0.6645  11.07$  19.4$  19.1$
|488>   Q  0.6645  11.36$  19.38$  17.55$
|489>   Q  -1.3290  11.32$  19.07$  18.35$
|490>   Q  0.6645  9.62$  18.72$  10.2$
|491>   Q  0.6645  9.36$  18.82$  8.69$
|492>   Q  -1.3290  9.15$  18.82$  9.49$
|493>   Q  0.6645  3.19$  16.33$  16.19$
|494>   Q  0.6645  4.19$  15.26$  16.91$
|495>   Q  -1.3290  3.95$  15.95$  16.42$
|496>   Q  0.6645  18.68$  6.97$  4.42$
|497>   Q  0.6645  19.4$  7.09$  3.13$
|498>   Q  -1.3290  19.36$  6.99$  3.95$
|499>   Q  0.6645  8.02$  4.4$  11.46$
|500>   Q  0.6645  8.71$  3.19$  12.12$
|501>   Q  -1.3290  8.21$  3.87$  12.09$
|502>   Q  0.6645  8.55$  15$  19.93$
|503>   Q  0.6645  7.82$  16.37$  20.22$
|504>   Q  -1.3290  7.93$  15.51$  20.27$
|505>   Q  0.6645  10.72$  4.82$  10.67$
|506>   Q  0.6645  11.6$  3.79$  9.83$
|507>   Q  -1.3290  10.89$  4.16$  10.11$
|508>   Q  0.6645  13.68$  17.17$  16.7$
|509>   Q  0.6645  14.16$  17.29$  18.09$
|510>   Q  -1.3290  14.09$  16.91$  17.36$
|511>   Q  0.6645  7.06$  18.51$  19.43$
|512>   Q  0.6645  8.19$  17.76$  18.73$
|513>   Q  -1.3290  7.77$  18.08$  19.39$
|514>   Q  0.6645  8.49$  9.9$  5.49$
|515>   Q  0.6645  7.1$  9.87$  5.08$
|516>   Q  -1.3290  7.87$  9.58$  5.08$
|517>   Q  0.6645  1.44$  5.68$  9.9$
|518>   Q  0.6645  2.75$  6.25$  10.29$
|519>   Q  -1.3290  2.05$  5.84$  10.43$
|520>   Q  0.6645  4.4$  13.42$  14.79$
|521>   Q  0.6645  5.89$  13.86$  15.01$
|522>   Q  -1.3290  5.22$  13.53$  14.6$
|523>   Q  0.6645  15.84$  19.74$  13.87$
|524>   Q  0.6645  15.56$  21.22$  14.35$
|525>   Q  -1.3290  15.47$  20.51$  13.89$
|526>   Q  0.6645  8.28$  8.75$  3.15$
|527>   Q  0.6645  8$  7.78$  1.95$
|528>   Q  -1.3290  8.37$  8.45$  2.34$
|529>   Q  0.6645  8.73$  17.57$  6.49$
|530>   Q  0.6645  8.92$  18.95$  6.45$
|531>   Q  -1.3290  9.2$  18.2$  6.59$
|532>   Q  0.6645  1.41$  9.48$  7.65$
|533>   Q  0.6645  2.25$  8.34$  7.12$
|534>   Q  -1.3290  1.77$  8.74$  7.68$
|535>   Q  0.6645  6.16$  19.52$  11.19$
|536>   Q  0.6645  4.98$  18.99$  11.97$
|537>   Q  -1.3290  5.42$  19.1$  11.29$
|538>   Q  0.6645  2$  12.93$  10.73$
|539>   Q  0.6645  0.6$  13.5$  10.49$
|540>   Q  -1.3290  1.25$  13.2$  10.94$
|541>   Q  0.6645  16.08$  11.07$  6.42$
|542>   Q  0.6645  17.63$  11$  6.81$
|543>   Q  -1.3290  16.81$  11.24$  6.91$
|544>   Q  0.6645  17.47$  9.05$  7.79$
|545>   Q  0.6645  15.99$  8.87$  7.49$
|546>   Q  -1.3290  16.77$  8.65$  7.57$
|547>   Q  0.6645  14.29$  14.83$  17.78$
|548>   Q  0.6645  13.51$  13.54$  17.59$
|549>   Q  -1.3290  14.2$  14.03$  17.62$
|550>   Q  0.6645  15.91$  13.17$  17.03$
|551>   Q  0.6645  17.2$  12.33$  17.28$
|552>   Q  -1.3290  16.59$  12.7$  16.83$
|553>   Q  0.6645  19.97$  8.31$  14.68$
|554>   Q  0.6645  19.99$  6.81$  14.64$
|555>   Q  -1.3290  20$  7.52$  15.02$
|556>   Q  0.6645  16.63$  5.44$  9.45$
|557>   Q  0.6645  16.95$  6.82$  8.78$
|558>   Q  -1.3290  17.12$  6.05$  9.06$
|559>   Q  0.6645  16.89$  7.63$  5.64$
|560>   Q  0.6645  16.91$  6.13$  5.29$
|561>   Q  -1.3290  16.96$  6.96$  5.11$
|562>   Q  0.6645  16.81$  8.63$  4.09$
|563>   Q  0.6645  16.74$  9.04$  2.57$
|564>   Q  -1.3290  16.7$  9.17$  3.46$
|565>   Q  0.6645  11.79$  13.25$  16.91$
|566>   Q  0.6645  11.71$  11.76$  16.76$
|567>   Q  -1.3290  12.06$  12.47$  17$
|568>   Q  0.6645  14.36$  5.29$  13.48$
|569>   Q  0.6645  15.56$  6.17$  13.9$
|570>   Q  -1.3290  14.73$  5.99$  13.78$
|571>   Q  0.6645  17.82$  9.69$  13.49$
|572>   Q  0.6645  16.6$  9.3$  12.63$
|573>   Q  -1.3290  17.42$  9.3$  12.86$
|574>   Q  0.6645  5.64$  5.53$  3.38$
|575>   Q  0.6645  6.59$  4.2$  3.6$
|576>   Q  -1.3290  6.35$  5.03$  3.54$
|577>   Q  0.6645  19.1$  8.39$  12.21$
|578>   Q  0.6645  20.61$  8.72$  12.61$
|579>   Q  -1.3290  19.97$  8.25$  12.24$
|580>   Q  0.6645  19.23$  15.73$  15.84$
|581>   Q  0.6645  19.05$  15.31$  17.32$
|582>   Q  -1.3290  18.92$  15.79$  16.6$
|583>   Q  0.6645  9.17$  16.76$  3.99$
|584>   Q  0.6645  9.61$  17$  2.56$
|585>   Q  -1.3290  9.37$  17.23$  3.34$
|586>   Q  0.6645  3.83$  10.57$  10.29$
|587>   Q  0.6645  2.45$  10.29$  9.44$
|588>   Q  -1.3290  3.14$  10.73$  9.77$
|589>   Q  0.6645  17.54$  7.22$  13.04$
|590>   Q  0.6645  17.87$  5.74$  13.3$
|591>   Q  -1.3290  17.38$  6.41$  13.02$
|592>   Q  0.6645  16.74$  2.72$  12.88$
|593>   Q  0.6645  15.36$  3.05$  13.25$
|594>   Q  -1.3290  16.15$  2.87$  13.42$
|595>   Q  0.6645  18.66$  4.36$  6.45$
|596>   Q  0.6645  18.61$  4.87$  7.88$
|597>   Q  -1.3290  18.97$  4.58$  7.19$
|598>   Q  0.6645  8.59$  2.03$  8.12$
|599>   Q  0.6645  7.86$  3.19$  7.3$
|600>   Q  -1.3290  8.07$  2.41$  7.47$
|601>   Q  0.6645  -0.02$  6.69$  12.83$
|602>   Q  0.6645  1.23$  6.28$  12.09$
|603>   Q  -1.3290  0.72$  6.37$  12.77$
|604>   Q  0.6645  10.33$  15.6$  16.91$
|605>   Q  0.6645  11.9$  15.66$  17.14$
|606>   Q  -1.3290  11.16$  15.3$  16.91$
|607>   Q  0.6645  6.56$  4.62$  8.91$
|608>   Q  0.6645  5.19$  4.11$  8.5$
|609>   Q  -1.3290  5.82$  4.24$  9.03$
|610>   Q  0.6645  11.07$  17.15$  19.19$
|611>   Q  0.6645  11.52$  16.65$  20.53$
|612>   Q  -1.3290  11.04$  16.64$  19.82$
|613>   Q  0.6645  16.21$  9.48$  17.41$
|614>   Q  0.6645  15.75$  10.51$  16.32$
|615>   Q  -1.3290  16.13$  9.82$  16.63$
|616>   Q  0.6645  6.35$  12.6$  3.42$
|617>   Q  0.6645  7.49$  13.05$  2.74$
|618>   Q  -1.3290  7.13$  12.51$  3.18$
|619>   Q  0.6645  16.49$  15.1$  8.25$
|620>   Q  0.6645  15.86$  15.08$  9.58$
|621>   Q  -1.3290  16.42$  15.32$  9.05$
|622>   Q  0.6645  17.46$  11.61$  1.88$
|623>   Q  0.6645  17.89$  12.67$  1.12$
|624>   Q  -1.3290  17.84$  12.28$  1.84$
|625>   Q  0.6645  10.75$  15.32$  1.19$
|626>   Q  0.6645  10.11$  15.97$  -0.09$
|627>   Q  -1.3290  10.2$  15.85$  0.77$
|628>   Q  0.6645  11.03$  6.17$  3.88$
|629>   Q  0.6645  9.9$  6.58$  4.87$
|630>   Q  -1.3290  10.69$  6.58$  4.57$
|631>   Q  0.6645  11.62$  14.48$  3.62$
|632>   Q  0.6645  12.05$  14.16$  5.02$
|633>   Q  -1.3290  11.53$  14.48$  4.45$
|634>   Q  0.6645  4.37$  17.08$  13.21$
|635>   Q  0.6645  4.61$  17$  14.6$
|636>   Q  -1.3290  4.62$  17.41$  13.9$
|637>   Q  0.6645  15.65$  16.8$  16.33$
|638>   Q  0.6645  17.02$  16.24$  15.85$
|639>   Q  -1.3290  16.24$  16.59$  15.75$
|640>   Q  0.6645  7.29$  12.97$  5.94$
|641>   Q  0.6645  8.39$  13.57$  6.61$
|642>   Q  -1.3290  7.61$  13.54$  6.41$
|643>   Q  0.6645  2.81$  4.27$  7.01$
|644>   Q  0.6645  3.29$  5.2$  8.12$
|645>   Q  -1.3290  3.02$  4.44$  7.78$
|646>   Q  0.6645  21.88$  14.08$  8.33$
|647>   Q  0.6645  20.46$  14.09$  8.85$
|648>   Q  -1.3290  21.2$  13.75$  8.65$
|649>   Q  0.6645  8.75$  11.28$  16.88$
|650>   Q  0.6645  9.7$  10.55$  17.63$
|651>   Q  -1.3290  9.49$  11.16$  17.13$
|652> *
|653> 
|654>                          ****END OF INPUT****
================================================================================

                     *******************************
                     * Energy+Gradient Calculation *
                     *******************************

---------------------------------
CARTESIAN COORDINATES (ANGSTROEM)
---------------------------------
  C     12.120000   10.690000    9.510000
  H     13.060000   11.180000    9.040000
  H     11.210000   11.060000    8.980000
  C     11.980000   11.170000   10.970000
  H     11.990000   10.260000   11.600000
  H     12.920000   11.720000   11.130000
  C     10.740000   12.060000   11.270000
  H     10.730000   12.940000   10.640000
  H     10.830000   12.390000   12.280000
  C      9.400000   11.530000   10.970000
  H      9.350000   11.160000    9.960000
  H      8.700000   12.360000   11.010000
  O      9.070000   10.440000   11.800000
  H      9.050000   10.750000   12.770000
  O     12.180000    9.230000    9.350000
  H     11.340000    8.820000    9.660000
  O      6.700000   10.370000    8.220000
  H      6.700000   11.050000    8.870000
  H      5.880000   10.500000    7.670000
  O     11.600000   15.580000   11.080000
  H     12.430000   16.020000   10.880000
  H     11.730000   15.140000   11.930000
  O      9.670000    8.250000    8.920000
  H      9.350000    8.970000    8.320000
  H      8.950000    8.100000    9.600000
  O      8.460000    7.630000   11.410000
  H      7.490000    7.520000   11.490000
  H      8.690000    8.540000   11.730000
  O     13.390000    6.440000    9.490000
  H     13.200000    7.390000    9.660000
  H     12.530000    6.160000    9.060000
  O      6.970000   13.160000    9.460000
  H      7.820000   13.610000    9.610000
  H      6.580000   13.450000    8.640000
  O      8.830000   10.890000   14.380000
  H      9.710000   10.740000   14.710000
  H      8.500000   10.030000   14.640000
  O     13.490000   18.070000   10.600000
  H     13.010000   18.770000   10.150000
  H     14.180000   17.950000    9.890000
  O     15.200000    4.870000   10.970000
  H     15.670000    5.240000   11.720000
  H     14.540000    5.550000   10.800000
  O      9.380000   14.870000    9.700000
  H      8.650000   15.370000   10.080000
  H     10.100000   15.210000   10.240000
  O     12.960000    8.040000   12.080000
  H     12.240000    7.390000   11.940000
  H     13.590000    7.610000   12.620000
  O      5.320000   10.160000    6.000000
  H      4.930000    9.390000    5.520000
  H      4.990000   10.920000    5.520000
  O      6.170000   11.920000   11.890000
  H      6.320000   12.490000   11.140000
  H      5.800000   12.460000   12.630000
  O     11.060000    6.330000    7.640000
  H     11.220000    6.890000    6.910000
  H     10.400000    6.920000    8.090000
  O     14.770000   10.300000   12.250000
  H     14.180000    9.580000   11.910000
  H     14.660000   10.350000   13.160000
  O      8.350000    5.310000    8.540000
  H      9.270000    5.070000    8.390000
  H      8.280000    6.190000    8.090000
  O     13.650000   13.920000    9.270000
  H     14.350000   13.260000    9.450000
  H     13.160000   14.140000   10.060000
  O      8.850000   13.710000   14.080000
  H      8.420000   12.870000   14.030000
  H      8.310000   14.310000   13.630000
  O     10.510000   18.120000   11.690000
  H     10.790000   17.240000   11.900000
  H      9.640000   18.180000   12.150000
  O     14.660000    6.270000    6.620000
  H     14.400000    5.690000    7.370000
  H     14.620000    5.670000    5.890000
  O     11.980000   11.330000    6.080000
  H     11.230000   11.140000    5.450000
  H     12.190000   10.530000    6.500000
  O     15.580000   11.980000    9.790000
  H     16.140000   11.720000    9.040000
  H     15.410000   11.300000   10.420000
  O      5.810000    6.460000   11.260000
  H      5.930000    5.480000   11.110000
  H      5.200000    6.440000   12.010000
  O     13.360000   13.540000    6.630000
  H     13.290000   12.600000    6.490000
  H     13.270000   13.750000    7.540000
  O     11.800000   15.260000   13.990000
  H     12.750000   14.970000   14.030000
  H     11.360000   14.770000   14.680000
  O      5.120000    9.530000   11.790000
  H      5.640000   10.360000   11.740000
  H      5.610000    9.030000   11.100000
  O      9.950000   13.310000    7.430000
  H      9.900000   13.830000    8.230000
  H     10.810000   13.420000    7.020000
  O      9.310000   10.470000    7.290000
  H      9.790000   11.340000    7.400000
  H      8.400000   10.630000    7.590000
  O     11.090000    8.930000   14.320000
  H     11.230000    8.960000   13.370000
  H     10.580000    8.150000   14.540000
  O     10.650000    6.020000   11.940000
  H     10.830000    5.690000   12.810000
  H      9.920000    6.610000   11.950000
  O     13.380000    8.830000    7.040000
  H     13.590000    7.940000    6.800000
  H     13.050000    8.790000    7.990000
  Q     15.300000   14.080000    6.430000
  Q     16.620000   13.330000    6.640000
  Q     16.130000   14.010000    6.560000
  Q      7.210000   16.480000    5.250000
  Q      7.910000   15.240000    5.780000
  Q      7.810000   16.100000    5.650000
  Q     13.840000   11.100000   15.470000
  Q     14.540000   12.210000   14.690000
  Q     14.400000   11.410000   14.940000
  Q      8.150000   20.530000   10.430000
  Q      7.060000   21.540000   10.100000
  Q      7.460000   20.960000   10.580000
  Q      4.270000   17.920000    5.670000
  Q      4.570000   17.370000    6.930000
  Q      4.780000   17.780000    6.270000
  Q      6.720000   17.300000   10.500000
  Q      7.930000   17.180000    9.650000
  Q      7.260000   16.880000   10.050000
  Q      9.560000    5.050000   18.430000
  Q      9.940000    3.680000   17.840000
  Q      9.490000    4.390000   17.920000
  Q     18.160000   17.600000   11.350000
  Q     16.600000   17.420000   11.120000
  Q     17.330000   17.820000   11.320000
  Q      3.550000    4.800000   16.390000
  Q      3.390000    6.290000   15.980000
  Q      3.590000    5.630000   16.470000
  Q      5.810000    8.860000   16.730000
  Q      5.310000    8.250000   15.310000
  Q      5.420000    8.850000   15.960000
  Q      1.970000    7.200000   14.310000
  Q      3.080000    8.300000   14.310000
  Q      2.660000    7.600000   14.570000
  Q     15.300000    9.890000    1.500000
  Q     15.100000   11.280000    0.780000
  Q     15.230000   10.750000    1.430000
  Q      4.110000   11.870000    3.590000
  Q      4.100000   13.210000    4.370000
  Q      4.390000   12.440000    4.160000
  Q     14.320000   10.960000    4.580000
  Q     15.700000   10.650000    4.280000
  Q     15.110000   10.950000    4.760000
  Q     18.320000   12.090000   14.630000
  Q     17.820000   13.230000   15.400000
  Q     18.200000   12.890000   14.760000
  Q      6.820000   12.290000   19.630000
  Q      6.850000   13.870000   19.870000
  Q      6.510000   13.110000   19.700000
  Q      8.690000   17.460000   16.120000
  Q      8.010000   16.240000   16.750000
  Q      8.630000   16.760000   16.580000
  Q     15.390000    9.380000   19.800000
  Q     16.170000   10.690000   19.270000
  Q     16.000000    9.830000   19.400000
  Q     11.160000    4.850000   14.980000
  Q     12.100000    5.970000   14.630000
  Q     11.370000    5.600000   14.710000
  Q      3.970000   11.750000   17.250000
  Q      4.080000   10.230000   16.690000
  Q      3.690000   10.960000   17.020000
  Q      7.690000    6.060000    4.890000
  Q      8.030000    7.480000    5.300000
  Q      8.080000    6.620000    5.350000
  Q     13.220000    9.620000   20.920000
  Q     12.500000   10.450000   19.870000
  Q     13.030000   10.310000   20.500000
  Q     19.950000   11.940000   11.690000
  Q     21.340000   12.460000   11.940000
  Q     20.590000   12.150000   12.170000
  Q     13.260000    8.910000    5.070000
  Q     12.340000    7.740000    4.460000
  Q     13.020000    8.270000    4.530000
  Q     12.690000    5.390000    2.900000
  Q     11.880000    5.970000    1.780000
  Q     12.020000    5.460000    2.410000
  Q     17.830000   10.140000   15.730000
  Q     19.370000   10.320000   15.770000
  Q     18.620000   10.220000   15.430000
  Q      9.940000    2.380000    9.710000
  Q     10.310000    0.960000    9.790000
  Q      9.790000    1.570000    9.610000
  Q     12.610000    2.490000    6.550000
  Q     12.510000    0.960000    6.690000
  Q     12.890000    1.720000    6.780000
  Q     15.590000    0.900000    4.520000
  Q     14.710000    1.550000    5.630000
  Q     15.430000    1.350000    5.240000
  Q     14.220000    6.890000   20.870000
  Q     13.790000    7.120000   19.340000
  Q     13.960000    7.340000   20.180000
  Q     12.250000    9.330000   15.520000
  Q     13.530000    8.830000   16.380000
  Q     12.850000    9.320000   16.200000
  Q      6.680000    5.220000   17.330000
  Q      5.210000    5.630000   17.510000
  Q      6.030000    5.510000   17.790000
  Q     15.790000    0.250000    9.900000
  Q     14.670000    1.170000   10.240000
  Q     15.020000    0.520000    9.830000
  Q     14.620000   18.150000    3.930000
  Q     14.660000   18.520000    2.460000
  Q     14.350000   18.120000    3.120000
  Q      7.860000   13.980000   16.120000
  Q      6.740000   13.610000   17.110000
  Q      7.180000   14.140000   16.630000
  Q      3.130000   15.440000    9.650000
  Q      4.500000   15.140000    9.450000
  Q      3.750000   14.960000    9.760000
  Q     13.230000   20.010000   13.130000
  Q     11.970000   19.030000   12.830000
  Q     12.450000   19.650000   13.270000
  Q     11.800000   13.510000    0.840000
  Q     12.890000   14.420000    1.470000
  Q     12.130000   14.040000    1.400000
  Q     19.100000   15.530000   12.140000
  Q     19.800000   16.850000   12.710000
  Q     19.510000   16.300000   12.140000
  Q     12.680000   20.320000    6.440000
  Q     11.980000   21.290000    5.430000
  Q     12.180000   20.960000    6.170000
  Q      1.350000   12.970000   14.850000
  Q      1.750000   13.640000   13.620000
  Q      1.900000   13.150000   14.260000
  Q     11.190000   17.360000    5.860000
  Q     11.820000   16.200000    5.220000
  Q     11.840000   16.920000    5.610000
  Q     10.760000   20.800000   16.070000
  Q     11.800000   20.300000   15.100000
  Q     11.520000   20.620000   15.840000
  Q      6.610000   15.620000   12.490000
  Q      7.910000   16.370000   12.210000
  Q      7.420000   15.760000   12.560000
  Q      4.360000    6.860000   14.240000
  Q      5.520000    5.840000   14.020000
  Q      5.140000    6.620000   13.990000
  Q     13.740000   11.070000    2.690000
  Q     12.260000   11.730000    2.750000
  Q     12.930000   11.260000    2.990000
  Q      5.080000    3.280000   15.620000
  Q      4.600000    2.400000   16.690000
  Q      4.480000    2.940000   16.060000
  Q      6.310000   11.470000   16.070000
  Q      6.870000   10.530000   17.010000
  Q      6.690000   11.280000   16.760000
  Q     15.180000   15.580000   12.110000
  Q     16.150000   14.380000   11.630000
  Q     15.400000   14.830000   11.760000
  Q      1.830000   17.120000    8.120000
  Q      1.370000   16.910000    9.560000
  Q      1.810000   16.740000    8.850000
  Q     14.260000   17.660000   12.460000
  Q     14.600000   16.760000   13.690000
  Q     14.720000   17.130000   12.930000
  Q     16.570000    7.390000   16.060000
  Q     16.220000    5.910000   16.200000
  Q     16.360000    6.690000   16.470000
  Q     13.530000   18.130000    5.880000
  Q     14.490000   18.680000    6.820000
  Q     14.120000   18.670000    6.110000
  Q      5.950000   15.590000    7.210000
  Q      6.100000   16.050000    8.740000
  Q      5.700000   15.820000    8.010000
  Q     17.970000   11.540000   10.460000
  Q     18.960000   11.110000    9.540000
  Q     18.690000   11.620000   10.090000
  Q      1.420000   15.770000    6.540000
  Q      1.770000   14.280000    6.920000
  Q      1.450000   14.910000    6.450000
  Q      3.870000    7.570000    5.290000
  Q      3.300000    6.270000    5.610000
  Q      3.550000    7.060000    5.810000
  Q     11.600000    8.890000   18.190000
  Q     10.410000    8.610000   19.070000
  Q     11.010000    9.100000   18.720000
  Q      8.800000   11.130000   21.560000
  Q      8.400000    9.970000   22.380000
  Q      8.290000   10.520000   21.770000
  Q     18.450000   13.450000   11.150000
  Q     18.370000   13.600000   12.770000
  Q     18.200000   13.790000   11.920000
  Q     11.360000   20.720000   10.730000
  Q     11.230000   20.940000   12.160000
  Q     11.010000   21.050000   11.400000
  Q      5.990000    7.110000   19.450000
  Q      5.300000    8.440000   19.980000
  Q      5.540000    7.600000   20.020000
  Q      2.630000   15.350000    3.610000
  Q      3.060000   15.050000    5.080000
  Q      3.150000   15.080000    4.240000
  Q      4.860000    9.430000    3.310000
  Q      5.490000    8.080000    2.700000
  Q      5.180000    8.620000    3.310000
  Q     13.670000    5.700000   17.820000
  Q     14.800000    6.640000   17.510000
  Q     13.990000    6.430000   17.630000
  Q     14.540000   11.910000   20.390000
  Q     14.970000   12.730000   19.240000
  Q     15.100000   12.410000   19.990000
  Q      7.630000    7.750000   14.240000
  Q      8.430000    6.700000   14.760000
  Q      8.230000    7.490000   14.670000
  Q     15.400000    7.430000    1.030000
  Q     16.560000    8.290000    0.360000
  Q     15.920000    8.140000    0.920000
  Q     12.420000   21.100000    8.330000
  Q     13.440000   21.220000    9.440000
  Q     12.740000   20.960000    9.090000
  Q      2.560000   12.270000    8.110000
  Q      3.470000   13.410000    8.350000
  Q      2.910000   12.990000    7.910000
  Q     19.630000   15.910000   10.160000
  Q     18.270000   15.630000    9.350000
  Q     19.130000   15.730000    9.470000
  Q     15.320000    5.670000    3.680000
  Q     14.120000    6.570000    3.990000
  Q     14.470000    5.860000    3.740000
  Q      5.770000    2.370000   10.870000
  Q      5.360000    0.910000   10.590000
  Q      5.720000    1.570000   11.040000
  Q      1.880000    9.830000   16.780000
  Q      1.740000    8.760000   15.800000
  Q      1.540000    9.180000   16.420000
  Q      8.030000   19.660000   12.510000
  Q      7.580000   18.510000   13.500000
  Q      7.950000   18.840000   12.790000
  Q      8.280000    8.490000   17.900000
  Q      8.010000    8.230000   16.520000
  Q      7.840000    8.600000   17.220000
  Q     11.000000    3.540000    5.530000
  Q     11.080000    4.760000    6.390000
  Q     11.410000    4.100000    6.000000
  Q     10.570000   12.610000   20.450000
  Q     10.880000   11.740000   21.550000
  Q     10.450000   12.310000   21.190000
  Q     18.940000    7.030000    9.100000
  Q     19.900000    7.610000   10.110000
  Q     19.640000    7.450000    9.340000
  Q     16.590000    3.810000   15.040000
  Q     16.930000    3.500000   16.550000
  Q     16.990000    3.920000   15.800000
  Q      8.920000    1.370000   13.280000
  Q      9.890000    0.990000   12.240000
  Q      9.580000    1.500000   12.820000
  Q      1.210000   16.170000   12.370000
  Q      2.530000   15.530000   12.740000
  Q      1.740000   15.770000   12.870000
  Q     10.500000   14.580000   19.040000
  Q     10.010000   13.360000   18.420000
  Q     10.060000   13.880000   19.020000
  Q      8.590000    7.230000   20.110000
  Q      8.600000    8.710000   20.600000
  Q      8.630000    8.070000   20.000000
  Q     19.560000    9.190000    8.260000
  Q     19.830000   10.380000    7.310000
  Q     19.380000    9.940000    7.950000
  Q     14.120000   16.270000    2.550000
  Q     14.800000   14.810000    2.380000
  Q     14.290000   15.510000    2.210000
  Q     16.290000   16.020000    5.380000
  Q     15.940000   17.570000    5.670000
  Q     16.370000   16.890000    5.340000
  Q     17.590000    2.290000    9.760000
  Q     16.320000    1.940000    8.810000
  Q     17.140000    1.980000    9.090000
  Q     12.760000    3.220000   13.510000
  Q     13.100000    3.260000   12.070000
  Q     13.260000    3.410000   12.870000
  Q     15.830000   18.950000    8.980000
  Q     15.880000   17.430000    8.780000
  Q     15.540000   18.180000    8.750000
  Q     11.270000    7.790000    0.570000
  Q     12.280000    7.390000   -0.400000
  Q     11.680000    7.220000    0.110000
  Q     21.890000   10.610000    4.720000
  Q     20.590000   11.200000    4.520000
  Q     21.370000   11.220000    4.780000
  Q      5.920000   18.750000   14.910000
  Q      6.510000   19.670000   15.890000
  Q      6.550000   19.180000   15.190000
  Q     10.130000   12.940000    4.400000
  Q      8.980000   11.950000    3.960000
  Q      9.730000   12.180000    4.320000
  Q     11.930000    2.070000   15.440000
  Q     10.800000    2.310000   14.400000
  Q     11.490000    2.510000   14.890000
  Q     12.200000   16.820000   14.720000
  Q     12.470000   18.320000   14.630000
  Q     12.450000   17.560000   15.010000
  Q     18.340000   10.640000    3.960000
  Q     18.700000   11.930000    4.590000
  Q     18.740000   11.100000    4.480000
  Q     18.120000   17.320000    6.530000
  Q     18.820000   17.110000    7.810000
  Q     18.480000   17.590000    7.210000
  Q      4.950000   13.470000   18.410000
  Q      3.520000   13.590000   18.590000
  Q      4.190000   13.580000   18.140000
  Q     17.000000    3.420000    5.490000
  Q     17.680000    4.090000    4.320000
  Q     17.160000    4.060000    5.000000
  Q      4.060000    7.270000    8.180000
  Q      4.680000    6.630000    9.370000
  Q      4.050000    6.910000    8.920000
  Q      8.600000    4.640000   15.950000
  Q      8.180000    4.430000   14.480000
  Q      8.100000    4.740000   15.250000
  Q      0.110000   11.710000    7.860000
  Q      0.440000   11.150000    6.510000
  Q      0.490000   11.170000    7.350000
  Q     17.860000   14.050000    4.880000
  Q     19.340000   14.390000    5.030000
  Q     18.690000   13.880000    4.900000
  Q     11.980000    9.250000    2.250000
  Q     10.440000    9.010000    2.000000
  Q     11.280000    9.080000    1.790000
  Q     17.310000   18.530000   13.070000
  Q     17.050000   18.160000   14.520000
  Q     17.350000   18.630000   13.900000
  Q      3.770000    9.890000   12.790000
  Q      2.910000   10.820000   13.600000
  Q      3.110000   10.090000   13.240000
  Q      4.780000   14.650000   13.190000
  Q      4.100000   14.820000   11.710000
  Q      4.430000   15.060000   12.510000
  Q      9.480000    1.670000    4.460000
  Q      8.970000    2.250000    5.750000
  Q      9.450000    2.240000    5.060000
  Q     22.570000    9.640000   13.370000
  Q     21.280000   10.450000   13.030000
  Q     21.760000    9.890000   13.420000
  Q     15.480000   12.990000    4.110000
  Q     16.530000   13.160000    3.040000
  Q     15.920000   13.440000    3.580000
  Q      6.760000   20.280000    6.600000
  Q      6.460000   18.710000    6.350000
  Q      6.940000   19.470000    6.420000
  Q      6.360000    3.830000   12.950000
  Q      5.080000    3.240000   13.040000
  Q      5.600000    3.860000   13.120000
  Q     14.490000   14.050000   13.090000
  Q     14.800000   14.400000   14.580000
  Q     14.310000   14.100000   13.910000
  Q      4.700000   10.700000   20.230000
  Q      3.880000   10.180000   18.990000
  Q      4.490000   10.190000   19.590000
  Q     13.480000    2.480000    9.010000
  Q     14.110000    3.600000    9.950000
  Q     13.580000    2.970000    9.730000
  Q     20.250000   13.220000   15.200000
  Q     21.120000   12.520000   14.180000
  Q     20.950000   12.890000   14.920000
  Q     11.070000   19.400000   19.100000
  Q     11.360000   19.380000   17.550000
  Q     11.320000   19.070000   18.350000
  Q      9.620000   18.720000   10.200000
  Q      9.360000   18.820000    8.690000
  Q      9.150000   18.820000    9.490000
  Q      3.190000   16.330000   16.190000
  Q      4.190000   15.260000   16.910000
  Q      3.950000   15.950000   16.420000
  Q     18.680000    6.970000    4.420000
  Q     19.400000    7.090000    3.130000
  Q     19.360000    6.990000    3.950000
  Q      8.020000    4.400000   11.460000
  Q      8.710000    3.190000   12.120000
  Q      8.210000    3.870000   12.090000
  Q      8.550000   15.000000   19.930000
  Q      7.820000   16.370000   20.220000
  Q      7.930000   15.510000   20.270000
  Q     10.720000    4.820000   10.670000
  Q     11.600000    3.790000    9.830000
  Q     10.890000    4.160000   10.110000
  Q     13.680000   17.170000   16.700000
  Q     14.160000   17.290000   18.090000
  Q     14.090000   16.910000   17.360000
  Q      7.060000   18.510000   19.430000
  Q      8.190000   17.760000   18.730000
  Q      7.770000   18.080000   19.390000
  Q      8.490000    9.900000    5.490000
  Q      7.100000    9.870000    5.080000
  Q      7.870000    9.580000    5.080000
  Q      1.440000    5.680000    9.900000
  Q      2.750000    6.250000   10.290000
  Q      2.050000    5.840000   10.430000
  Q      4.400000   13.420000   14.790000
  Q      5.890000   13.860000   15.010000
  Q      5.220000   13.530000   14.600000
  Q     15.840000   19.740000   13.870000
  Q     15.560000   21.220000   14.350000
  Q     15.470000   20.510000   13.890000
  Q      8.280000    8.750000    3.150000
  Q      8.000000    7.780000    1.950000
  Q      8.370000    8.450000    2.340000
  Q      8.730000   17.570000    6.490000
  Q      8.920000   18.950000    6.450000
  Q      9.200000   18.200000    6.590000
  Q      1.410000    9.480000    7.650000
  Q      2.250000    8.340000    7.120000
  Q      1.770000    8.740000    7.680000
  Q      6.160000   19.520000   11.190000
  Q      4.980000   18.990000   11.970000
  Q      5.420000   19.100000   11.290000
  Q      2.000000   12.930000   10.730000
  Q      0.600000   13.500000   10.490000
  Q      1.250000   13.200000   10.940000
  Q     16.080000   11.070000    6.420000
  Q     17.630000   11.000000    6.810000
  Q     16.810000   11.240000    6.910000
  Q     17.470000    9.050000    7.790000
  Q     15.990000    8.870000    7.490000
  Q     16.770000    8.650000    7.570000
  Q     14.290000   14.830000   17.780000
  Q     13.510000   13.540000   17.590000
  Q     14.200000   14.030000   17.620000
  Q     15.910000   13.170000   17.030000
  Q     17.200000   12.330000   17.280000
  Q     16.590000   12.700000   16.830000
  Q     19.970000    8.310000   14.680000
  Q     19.990000    6.810000   14.640000
  Q     20.000000    7.520000   15.020000
  Q     16.630000    5.440000    9.450000
  Q     16.950000    6.820000    8.780000
  Q     17.120000    6.050000    9.060000
  Q     16.890000    7.630000    5.640000
  Q     16.910000    6.130000    5.290000
  Q     16.960000    6.960000    5.110000
  Q     16.810000    8.630000    4.090000
  Q     16.740000    9.040000    2.570000
  Q     16.700000    9.170000    3.460000
  Q     11.790000   13.250000   16.910000
  Q     11.710000   11.760000   16.760000
  Q     12.060000   12.470000   17.000000
  Q     14.360000    5.290000   13.480000
  Q     15.560000    6.170000   13.900000
  Q     14.730000    5.990000   13.780000
  Q     17.820000    9.690000   13.490000
  Q     16.600000    9.300000   12.630000
  Q     17.420000    9.300000   12.860000
  Q      5.640000    5.530000    3.380000
  Q      6.590000    4.200000    3.600000
  Q      6.350000    5.030000    3.540000
  Q     19.100000    8.390000   12.210000
  Q     20.610000    8.720000   12.610000
  Q     19.970000    8.250000   12.240000
  Q     19.230000   15.730000   15.840000
  Q     19.050000   15.310000   17.320000
  Q     18.920000   15.790000   16.600000
  Q      9.170000   16.760000    3.990000
  Q      9.610000   17.000000    2.560000
  Q      9.370000   17.230000    3.340000
  Q      3.830000   10.570000   10.290000
  Q      2.450000   10.290000    9.440000
  Q      3.140000   10.730000    9.770000
  Q     17.540000    7.220000   13.040000
  Q     17.870000    5.740000   13.300000
  Q     17.380000    6.410000   13.020000
  Q     16.740000    2.720000   12.880000
  Q     15.360000    3.050000   13.250000
  Q     16.150000    2.870000   13.420000
  Q     18.660000    4.360000    6.450000
  Q     18.610000    4.870000    7.880000
  Q     18.970000    4.580000    7.190000
  Q      8.590000    2.030000    8.120000
  Q      7.860000    3.190000    7.300000
  Q      8.070000    2.410000    7.470000
  Q     -0.020000    6.690000   12.830000
  Q      1.230000    6.280000   12.090000
  Q      0.720000    6.370000   12.770000
  Q     10.330000   15.600000   16.910000
  Q     11.900000   15.660000   17.140000
  Q     11.160000   15.300000   16.910000
  Q      6.560000    4.620000    8.910000
  Q      5.190000    4.110000    8.500000
  Q      5.820000    4.240000    9.030000
  Q     11.070000   17.150000   19.190000
  Q     11.520000   16.650000   20.530000
  Q     11.040000   16.640000   19.820000
  Q     16.210000    9.480000   17.410000
  Q     15.750000   10.510000   16.320000
  Q     16.130000    9.820000   16.630000
  Q      6.350000   12.600000    3.420000
  Q      7.490000   13.050000    2.740000
  Q      7.130000   12.510000    3.180000
  Q     16.490000   15.100000    8.250000
  Q     15.860000   15.080000    9.580000
  Q     16.420000   15.320000    9.050000
  Q     17.460000   11.610000    1.880000
  Q     17.890000   12.670000    1.120000
  Q     17.840000   12.280000    1.840000
  Q     10.750000   15.320000    1.190000
  Q     10.110000   15.970000   -0.090000
  Q     10.200000   15.850000    0.770000
  Q     11.030000    6.170000    3.880000
  Q      9.900000    6.580000    4.870000
  Q     10.690000    6.580000    4.570000
  Q     11.620000   14.480000    3.620000
  Q     12.050000   14.160000    5.020000
  Q     11.530000   14.480000    4.450000
  Q      4.370000   17.080000   13.210000
  Q      4.610000   17.000000   14.600000
  Q      4.620000   17.410000   13.900000
  Q     15.650000   16.800000   16.330000
  Q     17.020000   16.240000   15.850000
  Q     16.240000   16.590000   15.750000
  Q      7.290000   12.970000    5.940000
  Q      8.390000   13.570000    6.610000
  Q      7.610000   13.540000    6.410000
  Q      2.810000    4.270000    7.010000
  Q      3.290000    5.200000    8.120000
  Q      3.020000    4.440000    7.780000
  Q     21.880000   14.080000    8.330000
  Q     20.460000   14.090000    8.850000
  Q     21.200000   13.750000    8.650000
  Q      8.750000   11.280000   16.880000
  Q      9.700000   10.550000   17.630000
  Q      9.490000   11.160000   17.130000

----------------------------
CARTESIAN COORDINATES (A.U.)
----------------------------
  NO LB      ZA    FRAG     MASS         X           Y           Z
   0 C     6.0000    0    12.011   22.903481   20.201172   17.971296
   1 H     1.0000    0     1.008   24.679823   21.127138   17.083124
   2 H     1.0000    0     1.008   21.183830   20.900371   16.969741
   3 C     6.0000    0    12.011   22.638919   21.108241   20.730296
   4 H     1.0000    0     1.008   22.657816   19.388590   21.920823
   5 H     1.0000    0     1.008   24.415262   22.147590   21.032652
   6 C     6.0000    0    12.011   20.295659   22.790097   21.297214
   7 H     1.0000    0     1.008   20.276761   24.453056   20.106686
   8 H     1.0000    0     1.008   20.465734   23.413707   23.205837
   9 C     6.0000    0    12.011   17.763426   21.788542   20.730296
  10 H     1.0000    0     1.008   17.668939   21.089344   18.821672
  11 H     1.0000    0     1.008   16.440617   23.357015   20.805885
  12 O     8.0000    0    15.999   17.139816   19.728741   22.298768
  13 H     1.0000    0     1.008   17.102022   20.314556   24.131803
  14 O     8.0000    0    15.999   23.016864   17.442172   17.668939
  15 H     1.0000    0     1.008   21.429494   16.667385   18.254754
  16 O     8.0000    0    15.999   12.661165   19.596460   15.533549
  17 H     1.0000    0     1.008   12.661165   20.881474   16.761871
  18 H     1.0000    0     1.008   11.111590   19.842124   14.494199
  19 O     8.0000    0    15.999   21.920823   29.441933   20.938166
  20 H     1.0000    0     1.008   23.489296   30.273413   20.560220
  21 H     1.0000    0     1.008   22.166488   28.610454   22.544433
  22 O     8.0000    0    15.999   18.273652   15.590241   16.856357
  23 H     1.0000    0     1.008   17.668939   16.950843   15.722521
  24 H     1.0000    0     1.008   16.913049   15.306782   18.141371
  25 O     8.0000    0    15.999   15.987083   14.418610   21.561775
  26 H     1.0000    0     1.008   14.154049   14.210741   21.712953
  27 H     1.0000    0     1.008   16.421720   16.138261   22.166488
  28 O     8.0000    0    15.999   25.303433   12.169836   17.933501
  29 H     1.0000    0     1.008   24.944385   13.965076   18.254754
  30 H     1.0000    0     1.008   23.678268   11.640713   17.120919
  31 O     8.0000    0    15.999   13.171391   24.868796   17.876809
  32 H     1.0000    0     1.008   14.777658   25.719173   18.160268
  33 H     1.0000    0     1.008   12.434398   25.416817   16.327234
  34 O     8.0000    0    15.999   16.686282   20.579118   27.174262
  35 H     1.0000    0     1.008   18.349241   20.295659   27.797871
  36 H     1.0000    0     1.008   16.062672   18.953953   27.665591
  37 O     8.0000    0    15.999   25.492406   34.147351   20.031097
  38 H     1.0000    0     1.008   24.585337   35.470160   19.180720
  39 H     1.0000    0     1.008   26.796317   33.920584   18.689391
  40 O     8.0000    0    15.999   28.723837    9.202966   20.730296
  41 H     1.0000    0     1.008   29.612009    9.902165   22.147590
  42 H     1.0000    0     1.008   27.476618   10.487980   20.409042
  43 O     8.0000    0    15.999   17.725631   28.100228   18.330343
  44 H     1.0000    0     1.008   16.346131   29.045091   19.048439
  45 H     1.0000    0     1.008   19.086234   28.742734   19.350796
  46 O     8.0000    0    15.999   24.490851   15.193398   22.827892
  47 H     1.0000    0     1.008   23.130248   13.965076   22.563330
  48 H     1.0000    0     1.008   25.681378   14.380816   23.848344
  49 O     8.0000    0    15.999   10.053343   19.199618   11.338357
  50 H     1.0000    0     1.008    9.316350   17.744528   10.431288
  51 H     1.0000    0     1.008    9.429733   20.635809   10.431288
  52 O     8.0000    0    15.999   11.659610   22.525536   22.468844
  53 H     1.0000    0     1.008   11.943069   23.602679   21.051549
  54 H     1.0000    0     1.008   10.960412   23.545988   23.867241
  55 O     8.0000    0    15.999   20.900371   11.961966   14.437508
  56 H     1.0000    0     1.008   21.202727   13.020213   13.058008
  57 H     1.0000    0     1.008   19.653152   13.076905   15.287884
  58 O     8.0000    0    15.999   27.911255   19.464179   23.149145
  59 H     1.0000    0     1.008   26.796317   18.103576   22.506638
  60 H     1.0000    0     1.008   27.703385   19.558665   24.868796
  61 O     8.0000    0    15.999   15.779213   10.034446   16.138261
  62 H     1.0000    0     1.008   17.517761    9.580911   15.854802
  63 H     1.0000    0     1.008   15.646932   11.697405   15.287884
  64 O     8.0000    0    15.999   25.794762   26.304988   17.517761
  65 H     1.0000    0     1.008   27.117570   25.057769   17.857912
  66 H     1.0000    0     1.008   24.868796   26.720728   19.010645
  67 O     8.0000    0    15.999   16.724076   25.908145   26.607344
  68 H     1.0000    0     1.008   15.911494   24.320775   26.512858
  69 H     1.0000    0     1.008   15.703624   27.041981   25.756967
  70 O     8.0000    0    15.999   19.861022   34.241838   22.090899
  71 H     1.0000    0     1.008   20.390145   32.578879   22.487741
  72 H     1.0000    0     1.008   18.216960   34.355221   22.960173
  73 O     8.0000    0    15.999   27.703385   11.848583   12.509987
  74 H     1.0000    0     1.008   27.212056   10.752542   13.927282
  75 H     1.0000    0     1.008   27.627796   10.714747   11.130487
  76 O     8.0000    0    15.999   22.638919   21.410597   11.489535
  77 H     1.0000    0     1.008   21.221624   21.051549   10.299007
  78 H     1.0000    0     1.008   23.035762   19.898816   12.283220
  79 O     8.0000    0    15.999   29.441933   22.638919   18.500419
  80 H     1.0000    0     1.008   30.500180   22.147590   17.083124
  81 H     1.0000    0     1.008   29.120680   21.353905   19.690946
  82 O     8.0000    0    15.999   10.979309   12.207631   21.278316
  83 H     1.0000    0     1.008   11.206076   10.355699   20.994857
  84 H     1.0000    0     1.008    9.826576   12.169836   22.695611
  85 O     8.0000    0    15.999   25.246741   25.586892   12.528884
  86 H     1.0000    0     1.008   25.114460   23.810549   12.264323
  87 H     1.0000    0     1.008   25.076666   25.983734   14.248535
  88 O     8.0000    0    15.999   22.298768   28.837221   26.437269
  89 H     1.0000    0     1.008   24.094008   28.289200   26.512858
  90 H     1.0000    0     1.008   21.467289   27.911255   27.741180
  91 O     8.0000    0    15.999    9.675398   18.009090   22.279871
  92 H     1.0000    0     1.008   10.658055   19.577563   22.185385
  93 H     1.0000    0     1.008   10.601364   17.064227   20.975960
  94 O     8.0000    0    15.999   18.802775   25.152255   14.040665
  95 H     1.0000    0     1.008   18.708289   26.134912   15.552446
  96 H     1.0000    0     1.008   20.427940   25.360125   13.265877
  97 O     8.0000    0    15.999   17.593350   19.785433   13.776104
  98 H     1.0000    0     1.008   18.500419   21.429494   13.983973
  99 H     1.0000    0     1.008   15.873700   20.087789   14.343021
 100 O     8.0000    0    15.999   20.957063   16.875254   27.060878
 101 H     1.0000    0     1.008   21.221624   16.931946   25.265638
 102 H     1.0000    0     1.008   19.993302   15.401268   27.476618
 103 O     8.0000    0    15.999   20.125583   11.376151   22.563330
 104 H     1.0000    0     1.008   20.465734   10.752542   24.207392
 105 H     1.0000    0     1.008   18.746083   12.491090   22.582227
 106 O     8.0000    0    15.999   25.284536   16.686282   13.303672
 107 H     1.0000    0     1.008   25.681378   15.004426   12.850138
 108 H     1.0000    0     1.008   24.660926   16.610693   15.098912
 109 Q     0.6645    0     0.000   28.912810   26.607344   12.150939
 110 Q     0.6645    0     0.000   31.407248   25.190049   12.547782
 111 Q    -1.3290    0     0.000   30.481283   26.475063   12.396603
 112 Q     0.6645    0     0.000   13.624925   31.142687    9.921062
 113 Q     0.6645    0     0.000   14.947734   28.799426   10.922617
 114 Q    -1.3290    0     0.000   14.758761   30.424591   10.676953
 115 Q     0.6645    0     0.000   26.153810   20.975960   29.234063
 116 Q     0.6645    0     0.000   27.476618   23.073556   27.760077
 117 Q    -1.3290    0     0.000   27.212056   21.561775   28.232508
 118 Q     0.6645    0     0.000   15.401268   38.796078   19.709844
 119 Q     0.6645    0     0.000   13.341467   40.704701   19.086234
 120 Q    -1.3290    0     0.000   14.097357   39.608660   19.993302
 121 Q     0.6645    0     0.000    8.069131   33.863892   10.714747
 122 Q     0.6645    0     0.000    8.636048   32.824543   13.095802
 123 Q    -1.3290    0     0.000    9.032891   33.599331   11.848583
 124 Q     0.6645    0     0.000   12.698960   32.692262   19.842124
 125 Q     0.6645    0     0.000   14.985528   32.465495   18.235857
 126 Q    -1.3290    0     0.000   13.719412   31.898577   18.991748
 127 Q     0.6645    0     0.000   18.065782    9.543117   34.827653
 128 Q     0.6645    0     0.000   18.783878    6.954192   33.712714
 129 Q    -1.3290    0     0.000   17.933501    8.295898   33.863892
 130 Q     0.6645    0     0.000   34.317427   33.259180   21.448392
 131 Q     0.6645    0     0.000   31.369454   32.919029   21.013755
 132 Q    -1.3290    0     0.000   32.748954   33.674920   21.391700
 133 Q     0.6645    0     0.000    6.708528    9.070685   30.972611
 134 Q     0.6645    0     0.000    6.406172   11.886377   30.197824
 135 Q    -1.3290    0     0.000    6.784117   10.639158   31.123789
 136 Q     0.6645    0     0.000   10.979309   16.742974   31.615118
 137 Q     0.6645    0     0.000   10.034446   15.590241   28.931707
 138 Q    -1.3290    0     0.000   10.242316   16.724076   30.160029
 139 Q     0.6645    0     0.000    3.722760   13.606028   27.041981
 140 Q     0.6645    0     0.000    5.820356   15.684727   27.041981
 141 Q    -1.3290    0     0.000    5.026672   14.361919   27.533310
 142 Q     0.6645    0     0.000   28.912810   18.689391    2.834589
 143 Q     0.6645    0     0.000   28.534865   21.316111    1.473986
 144 Q    -1.3290    0     0.000   28.780529   20.314556    2.702308
 145 Q     0.6645    0     0.000    7.766774   22.431049    6.784117
 146 Q     0.6645    0     0.000    7.747877   24.963282    8.258103
 147 Q    -1.3290    0     0.000    8.295898   23.508193    7.861261
 148 Q     0.6645    0     0.000   27.060878   20.711398    8.654946
 149 Q     0.6645    0     0.000   29.668700   20.125583    8.088028
 150 Q    -1.3290    0     0.000   28.553762   20.692501    8.995096
 151 Q     0.6645    0     0.000   34.619783   22.846789   27.646693
 152 Q     0.6645    0     0.000   33.674920   25.001077   29.101782
 153 Q    -1.3290    0     0.000   34.393016   24.358570   27.892358
 154 Q     0.6645    0     0.000   12.887932   23.224734   37.095324
 155 Q     0.6645    0     0.000   12.944624   26.210501   37.548858
 156 Q    -1.3290    0     0.000   12.302117   24.774310   37.227605
 157 Q     0.6645    0     0.000   16.421720   32.994618   30.462385
 158 Q     0.6645    0     0.000   15.136706   30.689152   31.652913
 159 Q    -1.3290    0     0.000   16.308337   31.671810   31.331659
 160 Q     0.6645    0     0.000   29.082885   17.725631   37.416577
 161 Q     0.6645    0     0.000   30.556872   20.201172   36.415023
 162 Q    -1.3290    0     0.000   30.235618   18.576008   36.660687
 163 Q     0.6645    0     0.000   21.089344    9.165172   28.308097
 164 Q     0.6645    0     0.000   22.865686   11.281665   27.646693
 165 Q    -1.3290    0     0.000   21.486186   10.582466   27.797871
 166 Q     0.6645    0     0.000    7.502213   22.204282   32.597776
 167 Q     0.6645    0     0.000    7.710083   19.331898   31.539529
 168 Q    -1.3290    0     0.000    6.973089   20.711398   32.163139
 169 Q     0.6645    0     0.000   14.531994   11.451740    9.240761
 170 Q     0.6645    0     0.000   15.174501   14.135151   10.015549
 171 Q    -1.3290    0     0.000   15.268987   12.509987   10.110035
 172 Q     0.6645    0     0.000   24.982179   18.179165   39.533071
 173 Q     0.6645    0     0.000   23.621577   19.747638   37.548858
 174 Q    -1.3290    0     0.000   24.623132   19.483076   38.739386
 175 Q     0.6645    0     0.000   37.700036   22.563330   22.090899
 176 Q     0.6645    0     0.000   40.326756   23.545988   22.563330
 177 Q    -1.3290    0     0.000   38.909461   22.960173   22.997967
 178 Q     0.6645    0     0.000   25.057769   16.837460    9.580911
 179 Q     0.6645    0     0.000   23.319220   14.626480    8.428179
 180 Q    -1.3290    0     0.000   24.604234   15.628035    8.560459
 181 Q     0.6645    0     0.000   23.980625   10.185624    5.480206
 182 Q     0.6645    0     0.000   22.449946   11.281665    3.363713
 183 Q    -1.3290    0     0.000   22.714508   10.317905    4.554240
 184 Q     0.6645    0     0.000   33.693817   19.161823   29.725392
 185 Q     0.6645    0     0.000   36.603995   19.501974   29.800981
 186 Q    -1.3290    0     0.000   35.186701   19.313001   29.158474
 187 Q     0.6645    0     0.000   18.783878    4.497548   18.349241
 188 Q     0.6645    0     0.000   19.483076    1.814137   18.500419
 189 Q    -1.3290    0     0.000   18.500419    2.966870   18.160268
 190 Q     0.6645    0     0.000   23.829447    4.705418   12.377706
 191 Q     0.6645    0     0.000   23.640474    1.814137   12.642268
 192 Q    -1.3290    0     0.000   24.358570    3.250329   12.812343
 193 Q     0.6645    0     0.000   29.460830    1.700754    8.541562
 194 Q     0.6645    0     0.000   27.797871    2.929076   10.639158
 195 Q    -1.3290    0     0.000   29.158474    2.551130    9.902165
 196 Q     0.6645    0     0.000   26.871906   13.020213   39.438584
 197 Q     0.6645    0     0.000   26.059323   13.454850   36.547303
 198 Q    -1.3290    0     0.000   26.380577   13.870590   38.134673
 199 Q     0.6645    0     0.000   23.149145   17.631145   29.328550
 200 Q     0.6645    0     0.000   25.567995   16.686282   30.953714
 201 Q    -1.3290    0     0.000   24.282981   17.612248   30.613563
 202 Q     0.6645    0     0.000   12.623371    9.864370   32.748954
 203 Q     0.6645    0     0.000    9.845473   10.639158   33.089105
 204 Q    -1.3290    0     0.000   11.395049   10.412391   33.618228
 205 Q     0.6645    0     0.000   29.838776    0.472432   18.708289
 206 Q     0.6645    0     0.000   27.722282    2.210980   19.350796
 207 Q    -1.3290    0     0.000   28.383687    0.982658   18.576008
 208 Q     0.6645    0     0.000   27.627796   34.298529    7.426624
 209 Q     0.6645    0     0.000   27.703385   34.997728    4.648726
 210 Q    -1.3290    0     0.000   27.117570   34.241838    5.895946
 211 Q     0.6645    0     0.000   14.853247   26.418371   30.462385
 212 Q     0.6645    0     0.000   12.736754   25.719173   32.333214
 213 Q    -1.3290    0     0.000   13.568234   26.720728   31.426146
 214 Q     0.6645    0     0.000    5.914843   29.177372   18.235857
[...]
 335   Q   :    0.185129826   -0.051954007    0.231731623
 336   Q   :    0.084176351   -0.145106732   -0.250015900
 337   Q   :   -0.256946965    0.190563509    0.022922193
 338   Q   :   -0.144656424   -0.187516484   -0.153486461
 339   Q   :   -0.134814297    0.219166876    0.131700287
 340   Q   :    0.280752778   -0.019711182    0.018806105
 341   Q   :    0.071871308    0.086378450   -0.284338276
 342   Q   :    0.182794631   -0.244094721    0.133658609
 343   Q   :   -0.246957024    0.159173262    0.152772332
 344   Q   :   -0.235460770   -0.129038714   -0.065080148
 345   Q   :    0.076650952    0.053334952    0.279324379
 346   Q   :    0.164418436    0.069292603   -0.217069179
 347   Q   :   -0.137261338   -0.028806362   -0.220256434
 348   Q   :   -0.037148907   -0.147474748    0.245227163
 349   Q   :    0.180240512    0.180283874   -0.012689279
 350   Q   :   -0.251632768   -0.062864606    0.173783962
 351   Q   :    0.100451927   -0.196304218   -0.200155731
 352   Q   :    0.155897846    0.249751738    0.021007326
 353   Q   :   -0.184346590    0.152552570   -0.204603518
 354   Q   :    0.267541101   -0.075231649   -0.067445737
 355   Q   :   -0.093496671   -0.071308809    0.266537758
 356   Q   :    0.162058861    0.239436738   -0.010997328
 357   Q   :   -0.006633849   -0.203178158   -0.255299625
 358   Q   :   -0.155058131   -0.037902442    0.260106245
 359   Q   :   -0.001349684   -0.291248270    0.048359881
 360   Q   :    0.004344776    0.170005964    0.190847676
 361   Q   :   -0.008117109    0.112996493   -0.226115055
 362   Q   :    0.066577786   -0.255515746    0.095668651
 363   Q   :    0.128201177    0.110071985   -0.177171862
 364   Q   :   -0.187198075    0.152203166    0.071013670
 365   Q   :   -0.054036368    0.234646472    0.114361641
 366   Q   :    0.144038786   -0.206812325    0.042425885
 367   Q   :   -0.086351950   -0.023964225   -0.161737725
 368   Q   :   -0.032548117   -0.263518067    0.020310299
 369   Q   :   -0.141362647    0.205611994    0.110367458
 370   Q   :    0.172790361    0.057650012   -0.138263547
 371   Q   :    0.132315011    0.104944549    0.235070551
 372   Q   :   -0.267195298   -0.001944502   -0.072087598
 373   Q   :    0.138915061   -0.097360313   -0.163986374
 374   Q   :   -0.178548702   -0.069530449    0.207400778
 375   Q   :   -0.073892664   -0.062977414   -0.277068190
 376   Q   :    0.246164382    0.131308679    0.061241505
 377   Q   :    0.095416587    0.249887627    0.081888474
 378   Q   :    0.124390834   -0.263471990    0.023159926
 379   Q   :   -0.210487685    0.020879174   -0.111553810
 380   Q   :   -0.130411645    0.187777940    0.133618136
 381   Q   :    0.248550838    0.088524528   -0.205162478
 382   Q   :   -0.122048777   -0.286349006    0.051671395
 383   Q   :    0.200188585   -0.265597130   -0.035877370
 384   Q   :   -0.265353835   -0.028422174   -0.105922723
 385   Q   :    0.078788498    0.296591792    0.139039245
 386   Q   :   -0.245808162   -0.153065660   -0.084578144
 387   Q   :   -0.031435603    0.157059956    0.237932738
 388   Q   :    0.277620621    0.005987551   -0.141514122
 389   Q   :    0.112294763    0.242620753    0.016829004
 390   Q   :   -0.234917667   -0.059380377   -0.115929601
 391   Q   :    0.120055834   -0.187264476    0.096651000
 392   Q   :    0.153204612   -0.172134756    0.201434938
 393   Q   :   -0.208107385   -0.069272172   -0.134724073
 394   Q   :    0.052822093    0.236324889   -0.051875209
 395   Q   :   -0.079838750   -0.242087596   -0.110304143
 396   Q   :   -0.000304627    0.239377577   -0.133845663
 397   Q   :    0.074942195    0.008263961    0.246866416
 398   Q   :   -0.167277064   -0.173104973   -0.221925686
 399   Q   :   -0.025121969    0.264166234    0.024086884
 400   Q   :    0.180343813   -0.102810297    0.193088077
 401   Q   :   -0.128540944   -0.125519577   -0.251030225
 402   Q   :    0.109539523   -0.181381800    0.192500287
 403   Q   :    0.023119273    0.311048046    0.057247690
 404   Q   :    0.268890635   -0.040402269    0.101626991
 405   Q   :   -0.258781404    0.001453798    0.191419708
 406   Q   :   -0.018236830    0.041524043   -0.295196401
 407   Q   :   -0.038450360   -0.240260048    0.174343413
 408   Q   :    0.175731587   -0.002803825   -0.221659440
 409   Q   :   -0.138279886    0.236437434    0.045249077
 410   Q   :    0.023991968    0.124486165   -0.277796067
 411   Q   :    0.236723053   -0.102218310    0.142215215
 412   Q   :   -0.257098438   -0.007955865    0.130247908
 413   Q   :    0.166172835   -0.040025783    0.200433267
 414   Q   :    0.045985613   -0.118832062   -0.267267764
 415   Q   :   -0.216929824    0.151710051    0.064371682
 416   Q   :   -0.143028505    0.204078238    0.167213232
 417   Q   :   -0.026857103    0.004986784   -0.293825086
 418   Q   :    0.161277322   -0.200049121    0.125098265
 419   Q   :   -0.272106573    0.070596526   -0.002849126
 420   Q   :    0.222280482    0.198553429    0.048229500
 421   Q   :    0.057856310   -0.255152762   -0.043498276
 422   Q   :    0.222814984    0.050774655    0.152988552
 423   Q   :   -0.247833505   -0.020864039    0.070997415
 424   Q   :    0.034591741   -0.017863267   -0.216175099
 425   Q   :   -0.022949927   -0.040357523   -0.269649878
 426   Q   :   -0.112151989   -0.167943294    0.209095544
 427   Q   :    0.150189409    0.215837051    0.070266380
 428   Q   :    0.243350720   -0.053594265   -0.151636328
 429   Q   :   -0.051131428    0.261058848    0.122342904
 430   Q   :   -0.197461971   -0.195938590    0.028119657
 431   Q   :    0.106659068   -0.123654030    0.192909379
 432   Q   :   -0.093310979   -0.071730375   -0.204109227
 433   Q   :   -0.008817426    0.195898403    0.011952716
 434   Q   :   -0.001232439   -0.224071466   -0.215792800
 435   Q   :   -0.164365001   -0.010359405    0.217120844
 436   Q   :    0.163972734    0.230416862   -0.015651095
 437   Q   :    0.277900218   -0.077738312   -0.032245282
 438   Q   :   -0.158880079    0.186307873   -0.146907539
 439   Q   :   -0.102432903   -0.110247069    0.191451246
 440   Q   :   -0.157110763   -0.177169534    0.186690661
 441   Q   :    0.177963805   -0.100863477   -0.165286048
 442   Q   :   -0.028409530    0.280666573   -0.014600080
 443   Q   :   -0.075696706    0.284446298    0.064743226
 444   Q   :   -0.127215569   -0.197980237   -0.018404895
 445   Q   :    0.206124743   -0.080355624   -0.046978157
 446   Q   :    0.322643063   -0.030765592   -0.073754936
 447   Q   :   -0.180010476   -0.247772283   -0.034840087
 448   Q   :   -0.153819394    0.273528166    0.110766750
 449   Q   :    0.058782407   -0.014613441   -0.259580226
 450   Q   :    0.148038210    0.091600772    0.188669953
 451   Q   :   -0.206111369   -0.090095901    0.076698078
 452   Q   :    0.062140934    0.185737298    0.221717197
 453   Q   :   -0.205284063    0.006296979   -0.183633794
 454   Q   :    0.136500116   -0.185260301   -0.034899862
 455   Q   :   -0.021343476   -0.138512909   -0.211887056
 456   Q   :    0.174078797    0.201025655    0.058188153
 457   Q   :   -0.152319005   -0.060833139    0.149264419
 458   Q   :   -0.267978703    0.126215084    0.099291504
 459   Q   :    0.048732249   -0.123549117   -0.253854487
 460   Q   :    0.230511132    0.000292894    0.162554448
 461   Q   :   -0.086678001    0.120828768    0.246226515
 462   Q   :   -0.001493298    0.109416574   -0.247218835
 463   Q   :    0.083932559   -0.224637714    0.001378222
 464   Q   :    0.150972465   -0.029327032    0.215321392
 465   Q   :    0.089905958    0.000299781   -0.279188903
 466   Q   :   -0.241101520    0.040130588    0.059635860
 467   Q   :   -0.239821289    0.113495565   -0.067607872
 468   Q   :    0.058719968   -0.200547692    0.143199070
 469   Q   :    0.180713248    0.089963031   -0.072157049
 470   Q   :   -0.248087073   -0.005860344    0.143614933
 471   Q   :   -0.008257019    0.038317069   -0.316881927
 472   Q   :    0.268537107   -0.032119073    0.169481807
 473   Q   :   -0.064763325    0.174528703   -0.220768343
 474   Q   :    0.165289033   -0.223190507    0.001010180
 475   Q   :   -0.098296953    0.054338780    0.209125293
 476   Q   :    0.184189605   -0.143954794   -0.113432117
 477   Q   :   -0.027171211    0.258635567   -0.023563250
 478   Q   :   -0.159170571   -0.110913529    0.146113611
 479   Q   :   -0.037599784    0.180598123    0.152779798
 480   Q   :    0.238194400   -0.122849530   -0.088688103
 481   Q   :   -0.202272328   -0.053201901   -0.069035087
 482   Q   :   -0.143418173    0.101827060   -0.224103835
 483   Q   :    0.019798929    0.147489992    0.263446453
 484   Q   :    0.123227923   -0.246298549   -0.026029819
 485   Q   :   -0.264983808    0.158794776   -0.005121261
 486   Q   :    0.125887730   -0.100776313   -0.233155460
 487   Q   :    0.137408723   -0.044874419    0.237452784
 488   Q   :    0.220076040    0.130487726    0.154799927
 489   Q   :   -0.274673993    0.117738195    0.003454572
 490   Q   :    0.051662967   -0.236046273   -0.160595156
 491   Q   :   -0.225733213   -0.049339383   -0.209548620
 492   Q   :    0.246464266    0.147971481   -0.056383567
 493   Q   :   -0.019153011   -0.109061465    0.262097577
 494   Q   :   -0.265186599   -0.027932989    0.068440843
 495   Q   :    0.211002958    0.107674926    0.131280199
 496   Q   :    0.056739030   -0.088566972   -0.190835141
 497   Q   :    0.109774219   -0.245746092    0.003878343
 498   Q   :    0.036835652    0.242248501    0.167438984
 499   Q   :   -0.150482004    0.009013598   -0.168012045
 500   Q   :   -0.038201410    0.074516827    0.245538859
 501   Q   :   -0.139163414   -0.227361833   -0.117574429
 502   Q   :    0.168511120    0.146914885   -0.134604679
 503   Q   :   -0.205240526   -0.237742517   -0.037078221
 504   Q   :   -0.110149310    0.277054656   -0.051205147
 505   Q   :    0.321899684   -0.030093350    0.088756768
 506   Q   :   -0.116273927    0.269426364   -0.028161091
 507   Q   :    0.167829259   -0.121707635   -0.211890646
 508   Q   :   -0.046017663   -0.156747419    0.243851964
 509   Q   :    0.231587265    0.127711468   -0.012399015
 510   Q   :   -0.162658880   -0.035019141    0.270355316
 511   Q   :   -0.076990857   -0.093673853   -0.255722165
 512   Q   :    0.274277360   -0.090743451   -0.096768528
 513   Q   :   -0.222435063    0.107083338   -0.176768267
 514   Q   :   -0.053493584   -0.016183430    0.273437324
 515   Q   :   -0.190359162   -0.052622844   -0.127169577
 516   Q   :    0.258922735   -0.082946326   -0.040320118
 517   Q   :   -0.059912717    0.126964356    0.173754739
 518   Q   :    0.232429508    0.143142308    0.081017896
 519   Q   :   -0.295565882    0.095773469   -0.026418025
 520   Q   :    0.058323278   -0.235935548   -0.051572208
 521   Q   :    0.020655684    0.291399867    0.066416876
 522   Q   :   -0.228005412   -0.137498516    0.000594098
 523   Q   :    0.200699251   -0.141101887   -0.060688974
 524   Q   :   -0.205956510    0.150302337    0.077280199
 525   Q   :    0.212936182   -0.121601606    0.167960453
 526   Q   :   -0.004318319   -0.035491976   -0.242718151
 527   Q   :   -0.012275417    0.247404087   -0.128231925
 528   Q   :   -0.009065100   -0.286553039   -0.174886094
 529   Q   :    0.019885282    0.037131854    0.303447151
 530   Q   :   -0.155482588   -0.180628816    0.114391951
 531   Q   :   -0.064884929    0.266973081   -0.084846524
 532   Q   :    0.215733909   -0.092534456   -0.024274798
 533   Q   :   -0.020355740    0.213868312    0.156706218
 534   Q   :   -0.016376298   -0.261821792    0.061996824
 535   Q   :    0.024503963    0.048499037   -0.221643194
 536   Q   :    0.043756399   -0.187154203    0.212872121
 537   Q   :    0.022449607   -0.037144852   -0.245591540
 538   Q   :   -0.060968921    0.225419316    0.034136038
 539   Q   :   -0.096662131    0.271356532   -0.035584775
 540   Q   :   -0.132215837   -0.246209801   -0.099185754
 541   Q   :    0.229391644   -0.043747225    0.129169997
 542   Q   :   -0.109070489   -0.239344539   -0.102470685
 543   Q   :    0.262649863    0.039323812    0.040480360
 544   Q   :   -0.152268409    0.202283695    0.076371015
 545   Q   :    0.125202818    0.134197402    0.212007913
 546   Q   :   -0.265353975   -0.002789268   -0.061651598
 547   Q   :    0.131625161   -0.123344442   -0.153726020
 548   Q   :   -0.227305802    0.147941725   -0.050795237
 549   Q   :    0.063101045   -0.271041545    0.018384091
 550   Q   :    0.159692471    0.119406759    0.027144730
 551   Q   :   -0.251038183    0.044519810   -0.002218135
 552   Q   :    0.173480439    0.148967986    0.111094287
 553   Q   :    0.078348989   -0.204203976   -0.112970864
 554   Q   :    0.121438991   -0.040030390   -0.286114439
 555   Q   :    0.047959687   -0.162540426    0.212842100
 556   Q   :   -0.162168573    0.202821032    0.078554931
 557   Q   :   -0.074892582   -0.195280756    0.225563681
 558   Q   :    0.074802191   -0.095052244   -0.253641927
 559   Q   :    0.001250705    0.293684816    0.031166602
 560   Q   :    0.209678560   -0.051379827    0.151874792
 561   Q   :   -0.208600752   -0.131564101   -0.100747936
 562   Q   :    0.000938790    0.183908355   -0.049982673
 563   Q   :    0.071387787    0.285676538    0.018155015
 564   Q   :    0.155707343   -0.198298608    0.091360473
 565   Q   :   -0.213187894   -0.089349029   -0.115669276
 566   Q   :    0.218106405   -0.052917451   -0.227279319
 567   Q   :   -0.268910600    0.066652267   -0.075014896
 568   Q   :    0.059642889   -0.023991091    0.294040066
 569   Q   :   -0.128287602   -0.081409241   -0.267187610
 570   Q   :   -0.144218350    0.099454875    0.242401223
 571   Q   :    0.280136049   -0.022456004    0.024781854
 572   Q   :    0.135227410   -0.080811024    0.158649634
 573   Q   :   -0.068922136    0.297097588   -0.064415956
 574   Q   :   -0.078631271   -0.213739495   -0.093035314
 575   Q   :   -0.301841904    0.135730726    0.007820619
 576   Q   :    0.143473274   -0.012600716   -0.214860350
 577   Q   :    0.146829980   -0.122285211    0.211156723
 578   Q   :   -0.228065788    0.087340640    0.008157127
 579   Q   :    0.243648121    0.123658808    0.082317120
 580   Q   :   -0.012826161   -0.207404662   -0.085863732
 581   Q   :    0.238937102    0.136221190   -0.053398278
 582   Q   :   -0.212567305   -0.033251115   -0.205772784
 583   Q   :   -0.032244957   -0.104988640    0.253530132
 584   Q   :    0.028426439    0.197641107   -0.234019779
 585   Q   :    0.173587598    0.018986171    0.227353505
 586   Q   :   -0.202938384   -0.218241713    0.016276841
 587   Q   :    0.023415062   -0.101254697    0.244724840
 588   Q   :   -0.123952477    0.229607371   -0.086644678
 589   Q   :    0.091727298   -0.134394672   -0.156578934
 590   Q   :   -0.280777293    0.054362517    0.073246200
 591   Q   :    0.137217473    0.249288754   -0.189728293
 592   Q   :    0.144276590   -0.304145774    0.108057602
 593   Q   :    0.016881798   -0.075028697   -0.265964339
 594   Q   :   -0.221257485   -0.098168636    0.193457722
 595   Q   :    0.198985536    0.170699226    0.077066755
 596   Q   :   -0.179443921   -0.303470123   -0.011503914
 597   Q   :   -0.002764384    0.123429978   -0.283798062
 598   Q   :    0.196940180    0.178643455    0.291018270
 599   Q   :    0.160877845   -0.163907922    0.111509865
 600   Q   :   -0.018043206    0.023464283   -0.279130963
 601   Q   :   -0.150931806    0.144530958    0.158127098
 602   Q   :    0.089741356   -0.116447690   -0.202809351
 603   Q   :   -0.260800041   -0.004550140    0.088211657
 604   Q   :    0.168804730    0.122624900    0.117259113
 605   Q   :    0.038844826   -0.011725383   -0.285691458
 606   Q   :    0.180853486   -0.115064751    0.180527040
 607   Q   :   -0.225561778    0.127591857    0.100509190
 608   Q   :   -0.105382253   -0.135239254   -0.262986889
 609   Q   :   -0.009265152   -0.163327233    0.252888803
 610   Q   :    0.108639443    0.304678145    0.000950724
 611   Q   :   -0.176777611    0.065883971    0.192392268
 612   Q   :    0.240168526   -0.113789002    0.037301993
 613   Q   :   -0.061050673    0.045978302   -0.236780709
 614   Q   :   -0.115567387   -0.232287976   -0.190917671
 615   Q   :    0.282807265    0.005963602    0.053778883
 616   Q   :   -0.180854820    0.216040640    0.135546834
 617   Q   :   -0.075388515   -0.044500060   -0.318955088
 618   Q   :    0.083606547    0.227836901    0.072374299
 619   Q   :   -0.013437801   -0.191024274    0.240329271
 620   Q   :    0.258295615    0.146060754   -0.122342636
 621   Q   :   -0.246834345    0.130599605    0.065944585
 622   Q   :   -0.007535636   -0.281634667    0.054138367
 623   Q   :   -0.308083027    0.029070219   -0.094545561
 624   Q   :    0.053914738   -0.234419602    0.182716762
 625   Q   :    0.250536119    0.202996329   -0.087732596

Difference to translation invariance:
           :   -0.0000479375    0.0001887340    0.0004626482

Difference to rotation invariance:
           :    0.0058934606   -0.0035543816   -0.0020120525

Norm of the cartesian gradient     ...    6.3842168917
RMS gradient                       ...    0.1474371736
MAX gradient                       ...    0.3272987397

-------
TIMINGS
-------

Total SCF gradient time            ...      226.467 sec

One electron gradient       ....      28.098 sec  ( 12.4%)
RI-J Coulomb gradient       ....      11.690 sec  (  5.2%)
COSX gradient               ....     143.350 sec  ( 63.3%)
XC gradient                 ....      17.114 sec  (  7.6%)

Maximum memory used throughout the entire SCFGRAD-calculation: 858.8 MB

                            ***************************************
                            *     ORCA property calculations      *
                            ***************************************

                                    ---------------------
                                    Active property flags
                                    ---------------------
   (+) Dipole Moment


------------------------------------------------------------------------------
                       ORCA ELECTRIC PROPERTIES CALCULATION
------------------------------------------------------------------------------

Dipole Moment Calculation                       ... on
Quadrupole Moment Calculation                   ... off
Polarizability Calculation                      ... off
GBWName                                         ... final006.orca.gbw
Electron density                                ... final006.orca.scfp
The origin for moment calculation is the CENTER OF MASS  = (20.063088, 20.151616 19.176258)

-------------
DIPOLE MOMENT
-------------
                                X             Y             Z
Electronic contribution:     -0.84503      -1.69795       1.20258
Nuclear contribution   :    -10.47389      -4.24301     -13.29754
                        -----------------------------------------
Total Dipole Moment    :    -11.31892      -5.94096     -12.09496
                        -----------------------------------------
Magnitude (a.u.)       :     17.59833
Magnitude (Debye)      :     44.73139



--------------------
Rotational spectrum 
--------------------
 
Rotational constants in cm-1:     0.001950     0.001549     0.001313 
Rotational constants in MHz :    58.469149    46.445979    39.372292 

 Dipole components along the rotational axes: 
x,y,z [a.u.] :    -8.239666    -8.932918   -12.728392 
x,y,z [Debye]:   -20.943565   -22.705674   -32.353003 

 

Timings for individual modules:

Sum of individual times         ...     1003.300 sec (=  16.722 min)
GTO integral calculation        ...       14.029 sec (=   0.234 min)   1.4 %
SCF iterations                  ...      758.579 sec (=  12.643 min)  75.6 %
SCF Gradient evaluation         ...      230.692 sec (=   3.845 min)  23.0 %
                             ****ORCA TERMINATED NORMALLY****
TOTAL RUN TIME: 0 days 0 hours 16 minutes 51 seconds 891 msec
