
                                 *****************
                                 * O   R   C   A *
                                 *****************

                                            #,                                       
                                            ###                                      
                                            ####                                     
                                            #####                                    
                                            ######                                   
                                           ########,                                 
                                     ,,################,,,,,                         
                               ,,#################################,,                 
                          ,,##########################################,,             
                       ,#########################################, ''#####,          
                    ,#############################################,,   '####,        
                  ,##################################################,,,,####,       
                ,###########''''           ''''###############################       
              ,#####''   ,,,,##########,,,,          '''####'''          '####       
            ,##' ,,,,###########################,,,                        '##       
           ' ,,###''''                  '''############,,,                           
         ,,##''                                '''############,,,,        ,,,,,,###''
      ,#''                                            '''#######################'''  
     '                                                          ''''####''''         
             ,#######,   #######,   ,#######,      ##                                
            ,#'     '#,  ##    ##  ,#'     '#,    #''#        ######   ,####,        
            ##       ##  ##   ,#'  ##            #'  '#       #        #'  '#        
            ##       ##  #######   ##           ,######,      #####,   #    #        
            '#,     ,#'  ##    ##  '#,     ,#' ,#      #,         ##   #,  ,#        
             '#######'   ##     ##  '#######'  #'      '#     #####' # '####'        



                  #######################################################
                  #                        -***-                        #
                  #          Department of theory and spectroscopy      #
                  #    Directorship and core code : Frank Neese         #
                  #        Max Planck Institute fuer Kohlenforschung    #
                  #                Kaiser Wilhelm Platz 1               #
                  #                 D-45470 Muelheim/Ruhr               #
                  #                      Germany                        #
                  #                                                     #
                  #                  All rights reserved                #
                  #                        -***-                        #
                  #######################################################


                         Program Version 5.0.3 -  RELEASE  -


 With contributions from (in alphabetic order):
   Daniel Aravena         : Magnetic Suceptibility
   Michael Atanasov       : Ab Initio Ligand Field Theory (pilot matlab implementation)
   Alexander A. Auer      : GIAO ZORA, VPT2 properties, NMR spectrum
   Ute Becker             : Parallelization
   Giovanni Bistoni       : ED, misc. LED, open-shell LED, HFLD
   Martin Brehm           : Molecular dynamics
   Dmytro Bykov           : SCF Hessian
   Vijay G. Chilkuri      : MRCI spin determinant printing, contributions to CSF-ICE
   Dipayan Datta          : RHF DLPNO-CCSD density
   Achintya Kumar Dutta   : EOM-CC, STEOM-CC
   Dmitry Ganyushin       : Spin-Orbit,Spin-Spin,Magnetic field MRCI
   Miquel Garcia          : C-PCM and meta-GGA Hessian, CC/C-PCM, Gaussian charge scheme
   Yang Guo               : DLPNO-NEVPT2, F12-NEVPT2, CIM, IAO-localization
   Andreas Hansen         : Spin unrestricted coupled pair/coupled cluster methods
   Benjamin Helmich-Paris : MC-RPA, TRAH-SCF, COSX integrals
   Lee Huntington         : MR-EOM, pCC
   Robert Izsak           : Overlap fitted RIJCOSX, COSX-SCS-MP3, EOM
   Marcus Kettner         : VPT2
   Christian Kollmar      : KDIIS, OOCD, Brueckner-CCSD(T), CCSD density, CASPT2, CASPT2-K
   Simone Kossmann        : Meta GGA functionals, TD-DFT gradient, OOMP2, MP2 Hessian
   Martin Krupicka        : Initial AUTO-CI
   Lucas Lang             : DCDCAS
   Marvin Lechner         : AUTO-CI (C++ implementation), FIC-MRCC
   Dagmar Lenk            : GEPOL surface, SMD
   Dimitrios Liakos       : Extrapolation schemes; Compound Job, initial MDCI parallelization
   Dimitrios Manganas     : Further ROCIS development; embedding schemes
   Dimitrios Pantazis     : SARC Basis sets
   Anastasios Papadopoulos: AUTO-CI, single reference methods and gradients
   Taras Petrenko         : DFT Hessian,TD-DFT gradient, ASA, ECA, R-Raman, ABS, FL, XAS/XES, NRVS
   Peter Pinski           : DLPNO-MP2, DLPNO-MP2 Gradient
   Christoph Reimann      : Effective Core Potentials
   Marius Retegan         : Local ZFS, SOC
   Christoph Riplinger    : Optimizer, TS searches, QM/MM, DLPNO-CCSD(T), (RO)-DLPNO pert. Triples
   Tobias Risthaus        : Range-separated hybrids, TD-DFT gradient, RPA, STAB
   Michael Roemelt        : Original ROCIS implementation
   Masaaki Saitow         : Open-shell DLPNO-CCSD energy and density
   Barbara Sandhoefer     : DKH picture change effects
   Avijit Sen             : IP-ROCIS
   Kantharuban Sivalingam : CASSCF convergence, NEVPT2, FIC-MRCI
   Bernardo de Souza      : ESD, SOC TD-DFT
   Georgi Stoychev        : AutoAux, RI-MP2 NMR, DLPNO-MP2 response
   Willem Van den Heuvel  : Paramagnetic NMR
   Boris Wezisla          : Elementary symmetry handling
   Frank Wennmohs         : Technical directorship


 We gratefully acknowledge several colleagues who have allowed us to
 interface, adapt or use parts of their codes:
   Stefan Grimme, W. Hujo, H. Kruse, P. Pracht,  : VdW corrections, initial TS optimization,
                  C. Bannwarth, S. Ehlert          DFT functionals, gCP, sTDA/sTD-DF
   Ed Valeev, F. Pavosevic, A. Kumar             : LibInt (2-el integral package), F12 methods
   Garnet Chan, S. Sharma, J. Yang, R. Olivares  : DMRG
   Ulf Ekstrom                                   : XCFun DFT Library
   Mihaly Kallay                                 : mrcc  (arbitrary order and MRCC methods)
   Jiri Pittner, Ondrej Demel                    : Mk-CCSD
   Frank Weinhold                                : gennbo (NPA and NBO analysis)
   Christopher J. Cramer and Donald G. Truhlar   : smd solvation model
   Lars Goerigk                                  : TD-DFT with DH, B97 family of functionals
   V. Asgeirsson, H. Jonsson                     : NEB implementation
   FAccTs GmbH                                   : IRC, NEB, NEB-TS, DLPNO-Multilevel, CI-OPT
                                                   MM, QMMM, 2- and 3-layer-ONIOM, Crystal-QMMM,
                                                   LR-CPCM, SF, NACMEs, symmetry and pop. for TD-DFT,
                                                   nearIR, NL-DFT gradient (VV10), updates on ESD,
                                                   ML-optimized integration grids
   S Lehtola, MJT Oliveira, MAL Marques          : LibXC Library
   Liviu Ungur et al                             : ANISO software


 Your calculation uses the libint2 library for the computation of 2-el integrals
 For citations please refer to: http://libint.valeyev.net

 Your ORCA version has been built with support for libXC version: 5.1.0
 For citations please refer to: https://tddft.org/programs/libxc/

 This ORCA versions uses:
   CBLAS   interface :  Fast vector & matrix operations
   LAPACKE interface :  Fast linear algebra routines
   SCALAPACK package :  Parallel linear algebra routines
   Shared memory     :  Shared parallel matrices
   BLAS/LAPACK       :  OpenBLAS 0.3.15  USE64BITINT DYNAMIC_ARCH NO_AFFINITY SkylakeX SINGLE_THREADED
        Core in use  :  SkylakeX
   Copyright (c) 2011-2014, The OpenBLAS Project


================================================================================

----- Orbital basis set information -----
Your calculation utilizes the basis: def2-SVP
   F. Weigend and R. Ahlrichs, Phys. Chem. Chem. Phys. 7, 3297 (2005).

The basis set includes element-specific modifications.

Your calculation utilizes the basis: aug-cc-pVTZ 
    H, B-Ne : Obtained from the ccRepo (grant-hill.group.shef.ac.uk/ccrepo) Feb. 2017
              R. A. Kendall, T. H. Dunning, Jr., R. J. Harrison, J. Chem. Phys. 96, 6796 (1992)
         He : Obtained from the ccRepo (grant-hill.group.shef.ac.uk/ccrepo) Feb. 2017
              D. E. Woon, T. H. Dunning, Jr., J. Chem. Phys. 100, 2975 (1994)
  Li-Be, Na : Obtained from the ccRepo (grant-hill.group.shef.ac.uk/ccrepo) Feb. 2017
              B. P. Prascher, D. E. Woon, K. A. Peterson, T. H. Dunning, Jr., A. K. Wilson, Theor. Chem. Acc. 128, 69 (2011)
         Mg : Obtained from the Peterson Research Group Website (tyr0.chem.wsu.edu/~kipeters) Feb. 2017
              B. P. Prascher, D. E. Woon, K. A. Peterson, T. H. Dunning, Jr., A. K. Wilson, Theor. Chem. Acc. 128, 69 (2011)
      Al-Ar : Obtained from the ccRepo (grant-hill.group.shef.ac.uk/ccrepo) Feb. 2017
              D. E. Woon, T. H. Dunning, Jr., J. Chem. Phys. 98, 1358 (1993)
      Sc-Zn : Obtained from the ccRepo (grant-hill.group.shef.ac.uk/ccrepo) Feb. 2017
              N. B. Balabanov, K. A. Peterson, J. Chem. Phys. 123, 064107 (2005)
              N. B. Balabanov, K. A. Peterson, J. Chem. Phys. 125, 074110 (2006)
      Ga-Kr : Obtained from the ccRepo (grant-hill.group.shef.ac.uk/ccrepo) Feb. 2017
              A. K. Wilson, D. E. Woon, K. A. Peterson, T. H. Dunning, Jr., J. Chem. Phys. 110, 7667 (1999)
     Ag, Au : Obtained from the Peterson Research Group Website (tyr0.chem.wsu.edu/~kipeters) Feb. 2017
              K. A. Peterson, C. Puzzarini, Theor. Chem. Acc. 114, 283 (2005)

Your calculation utilizes the basis: cc-pVTZ 
       H, B-Ne : Obtained from the ccRepo (grant-hill.group.shef.ac.uk/ccrepo) Feb. 2017
                 T. H. Dunning, Jr., J. Chem. Phys. 90, 1007 (1989)
            He : Obtained from the ccRepo (grant-hill.group.shef.ac.uk/ccrepo) Feb. 2017
                 D. E. Woon, T. H. Dunning, Jr., J. Chem. Phys. 100, 2975 (1994)
  Li-Be, Na-Mg : Obtained from the ccRepo (grant-hill.group.shef.ac.uk/ccrepo) Feb. 2017
                 B. P. Prascher, D. E. Woon, K. A. Peterson, T. H. Dunning, Jr., A. K. Wilson, Theor. Chem. Acc. 128, 69 (2011)
         Al-Ar : Obtained from the ccRepo (grant-hill.group.shef.ac.uk/ccrepo) Feb. 2017
                 D. E. Woon, T. H. Dunning, Jr., J. Chem. Phys. 98, 1358 (1993)
            Ca : Obtained from the Peterson Research Group Website (tyr0.chem.wsu.edu/~kipeters) Feb. 2017
                 J. Koput, K. A. Peterson, J. Phys. Chem. 106, 9595 (2002)
         Sc-Zn : Obtained from the ccRepo (grant-hill.group.shef.ac.uk/ccrepo) Feb. 2017
                 N. B. Balabanov, K. A. Peterson, J. Chem. Phys. 123, 064107 (2005)
                 N. B. Balabanov, K. A. Peterson, J. Chem. Phys. 125, 074110 (2006)
         Ga-Kr : Obtained from the ccRepo (grant-hill.group.shef.ac.uk/ccrepo) Feb. 2017
                 A. K. Wilson, D. E. Woon, K. A. Peterson, T. H. Dunning, Jr., J. Chem. Phys. 110, 7667 (1999)
             Y : Obtained from the ccRepo (grant-hill.group.shef.ac.uk/ccrepo) Feb. 2017
                 K. A. Peterson, D. Figgen, M. Dolg, H. Stoll, J. Chem. Phys. 126, 124101 (2007)
        Ag, Au : Obtained from the Peterson Research Group Website (tyr0.chem.wsu.edu/~kipeters) Feb. 2017
                 K. A. Peterson, C. Puzzarini, Theor. Chem. Acc. 114, 283 (2005)

----- AuxJ basis set information -----
Your calculation utilizes the auxiliary basis: def2/J
   F. Weigend, Phys. Chem. Chem. Phys. 8, 1057 (2006).

================================================================================
                                        WARNINGS
                       Please study these warnings very carefully!
================================================================================

WARNING: The globally-selected AuxJ basis set is optimized for use with ECPs
         Make sure a suitable alternative is explicitly given all heavy elements (Z>36)

INFO   : the flag for use of the SHARK integral package has been found!

================================================================================
                                       INPUT FILE
================================================================================
NAME = final072.orca.inp
|  1> ! NoMOPrint PrintBasis #MINIPRINT SMALLPRINT LARGEPRINT
|  2> ! ALLPOP XYZFILE
|  3> #! BP86 3-21G   TightSCF
|  4> ! ENGRAD
|  5> ! B3LYP NormalPNO PModel #DecontractAux
|  6> #! VerySlowConv 
|  7>  %maxcore 5000
|  8>  %scf  maxiter   500  end 
|  9> 
| 10> %pal
| 11>     nprocs 32
| 12> end
| 13> 
| 14> %basis
| 15>     NewGTO O    # New basis for oxygen
| 16>         "aug-cc-pVTZ"
| 17>     end
| 18>     NewGTO C    # New basis for carbon
| 19>         "aug-cc-pVTZ"
| 20>     end
| 21>     NewGTO H    # New basis for hydrogen
| 22>         "cc-pVTZ"
| 23>     end
| 24> end
| 25> 
| 26> * xyz 0   1
| 27>   C  9.69  11.07  9.08  #1
| 28>   H  10.02  11.59  8.22  #2
| 29>   H  8.71  11.43  9.34  #3
| 30>   C  10.79  11.24  10.18  #4
| 31>   H  11.7  10.68  9.83  #5
| 32>   H  11.03  12.3  10.26  #6
| 33>   C  10.49  10.63  11.59  #7
| 34>   H  10.37  9.5  11.43  #8
| 35>   H  9.49  10.93  11.88  #9
| 36>   C  11.44  10.91  12.71  #10
| 37>   H  10.97  10.64  13.63  #11
| 38>   H  11.77  11.98  12.77  #12
| 39>   O  12.62  10.08  12.54  #13
| 40>   H  13.09  10.19  13.37  #14
| 41>   O  9.48  9.61  8.78  #15
| 42>   H  8.73  9.63  8.16  #16
| 43>   O  6.9  9.39  7.53  #17
| 44>   H  7.15  9.72  6.67  #18
| 45>   H  6.65  8.47  7.34  #19
| 46>   O  8.12  8.32  12.4  #20
| 47>   H  8.91  7.81  12.33  #21
| 48>   H  8.02  8.63  11.45  #22
| 49>   O  12.31  14.69  8.45  #23
| 50>   H  12.24  13.9  7.92  #24
| 51>   H  11.73  14.51  9.2  #25
| 52>   O  12.2  8.09  14.8  #26
| 53>   H  11.68  7.98  13.97  #27
| 54>   H  11.49  8.04  15.44  #28
| 55>   O  12.12  8.35  8.75  #29
| 56>   H  12.77  8.8  8.25  #30
| 57>   H  11.21  8.73  8.67  #31
| 58>   O  8.89  7.15  9.7  #32
| 59>   H  8.25  6.78  9.06  #33
| 60>   H  9.08  8.06  9.42  #34
| 61>   O  14.2  9.93  7.69  #35
| 62>   H  14.99  9.99  7.12  #36
| 63>   H  14.21  10.7  8.34  #37
| 64>   O  13.24  7.79  11.02  #38
| 65>   H  12.81  8.06  10.17  #39
| 66>   H  13.14  8.59  11.6  #40
| 67>   O  7.39  5.86  14.24  #41
| 68>   H  8.29  5.88  14.63  #42
| 69>   H  7.22  6.82  14.22  #43
| 70>   O  5.24  7.2  8.39  #44
| 71>   H  4.98  7.01  9.34  #45
| 72>   H  4.5  6.73  7.93  #46
| 73>   O  10.43  8.77  17.04  #47
| 74>   H  10.52  8.38  17.99  #48
| 75>   H  9.73  9.43  17.07  #49
| 76>   O  15.13  9.68  14.7  #50
| 77>   H  14.69  8.84  14.91  #51
| 78>   H  15.37  9.71  13.71  #52
| 79>   O  8.03  13.72  11.46  #53
| 80>   H  7.22  13.25  11.08  #54
| 81>   H  8.09  13.37  12.38  #55
| 82>   O  14.59  6.38  15.5  #56
| 83>   H  15.17  6.25  14.7  #57
| 84>   H  13.72  6.64  15.13  #58
| 85>   O  9.6  6.34  15.67  #59
| 86>   H  9.59  7.18  16.18  #60
| 87>   H  10  5.73  16.29  #61
| 88>   O  12.01  12.77  6.53  #62
| 89>   H  12.8  12.85  5.94  #63
| 90>   H  11.23  13.12  6.09  #64
| 91>   O  14.23  12.39  15.05  #65
| 92>   H  13.41  12.74  14.6  #66
| 93>   H  14.58  11.74  14.47  #67
| 94>   O  6.19  8.99  14.35  #68
| 95>   H  7.01  8.87  13.8  #69
| 96>   H  5.44  9.27  13.78  #70
| 97>   O  10.61  7.27  12.53  #71
| 98>   H  11.16  7.21  11.72  #72
| 99>   H  10.5  6.37  12.82  #73
|100>   O  6.08  9.15  10.37  #74
|101>   H  5.86  8.95  9.46  #75
|102>   H  5.62  8.54  10.98  #76
|103>   O  7.33  5.92  7.26  #77
|104>   H  6.5  6.37  7.47  #78
|105>   H  7.3  5.91  6.3  #79
|106>   O  15.79  10.6  12.17  #80
|107>   H  16.19  10.28  11.33  #81
|108>   H  15.37  11.45  11.89  #82
|109>   O  7.14  3.87  8.95  #83
|110>   H  7.25  4.6  8.32  #84
|111>   H  7.05  4.38  9.82  #85
|112>   O  13.72  17.27  8.51  #86
|113>   H  13.91  17.64  9.36  #87
|114>   H  13.49  16.32  8.7  #88
|115>   O  9.52  8.03  5.94  #89
|116>   H  10.33  8.5  5.72  #90
|117>   H  9.79  7.18  6.38  #91
|118>   O  10.03  14.64  10.07  #92
|119>   H  9.22  14.32  10.55  #93
|120>   H  9.72  15.19  9.32  #94
|121>   O  7.76  9.56  4.62  #95
|122>   H  8.28  9.91  3.91  #96
|123>   H  8.37  8.95  5.13  #97
|124>   O  11.16  5.73  9.61  #98
|125>   H  11.67  6.28  9.07  #99
|126>   H  10.35  6.2  9.78  #100
|127>   O  7.23  5.48  11.26  #101
|128>   H  7.42  5.32  12.22  #102
|129>   H  7.92  6.12  11.02  #103
|130>   O  11.5  13.8  14.49  #104
|131>   H  10.91  13.69  15.26  #105
|132>   H  11.07  14.35  13.82  #106
|133>   Q  0.6645  10.14$  9.24$  1.99$
|134>   Q  0.6645  11.13$  8.1$  2.4$
|135>   Q  -1.3290  10.69$  8.59$  1.86$
|136>   Q  0.6645  4.01$  17.31$  12.43$
|137>   Q  0.6645  3.63$  17.06$  13.89$
|138>   Q  -1.3290  4.15$  17.04$  13.21$
|139>   Q  0.6645  16.71$  10.46$  5.78$
|140>   Q  0.6645  17.99$  10.7$  6.58$
|141>   Q  -1.3290  17.15$  10.71$  6.43$
|142>   Q  0.6645  10.75$  19.43$  17.9$
|143>   Q  0.6645  11.06$  18.02$  17.25$
|144>   Q  -1.3290  10.65$  18.77$  17.36$
|145>   Q  0.6645  6.11$  16.09$  15.18$
|146>   Q  0.6645  6.25$  16.86$  16.52$
|147>   Q  -1.3290  6.48$  16.6$  15.74$
|148>   Q  0.6645  4.51$  7.9$  16.74$
|149>   Q  0.6645  5.64$  8.65$  16.17$
|150>   Q  -1.3290  5.25$  8.32$  16.81$
|151>   Q  0.6645  19.15$  13.93$  13.46$
|152>   Q  0.6645  17.7$  13.89$  13.99$
|153>   Q  -1.3290  18.31$  14.08$  13.44$
|154>   Q  0.6645  12.67$  10.01$  3.77$
|155>   Q  0.6645  13.08$  10.69$  2.52$
|156>   Q  -1.3290  13.21$  10.21$  3.2$
|157>   Q  0.6645  11.69$  6.37$  19.13$
|158>   Q  0.6645  11.19$  7.57$  20.03$
|159>   Q  -1.3290  11.14$  6.96$  19.42$
|160>   Q  0.6645  6.53$  10.48$  15.16$
|161>   Q  0.6645  5.66$  11.64$  15.83$
|162>   Q  -1.3290  6.36$  11.24$  15.54$
|163>   Q  0.6645  9.01$  14.22$  16.84$
|164>   Q  0.6645  8.08$  15.2$  16.19$
|165>   Q  -1.3290  8.82$  14.77$  16.27$
|166>   Q  0.6645  19.28$  5.6$  17.63$
|167>   Q  0.6645  17.86$  5.46$  17.23$
|168>   Q  -1.3290  18.47$  5.69$  17.74$
|169>   Q  0.6645  12.25$  11.35$  18.64$
|170>   Q  0.6645  11.79$  11.5$  19.97$
|171>   Q  -1.3290  11.87$  11.76$  19.21$
|172>   Q  0.6645  0.51$  8.02$  7.81$
|173>   Q  0.6645  0.89$  7.5$  6.36$
|174>   Q  -1.3290  0.95$  7.99$  7.09$
|175>   Q  0.6645  2.02$  5.05$  12.55$
|176>   Q  0.6645  3.21$  4.13$  11.76$
|177>   Q  -1.3290  2.84$  4.75$  12.27$
|178>   Q  0.6645  16.02$  17.58$  17.01$
|179>   Q  0.6645  14.62$  17.13$  16.52$
|180>   Q  -1.3290  15.3$  17.17$  17.06$
|181>   Q  0.6645  4.56$  2.05$  7.62$
|182>   Q  0.6645  5.73$  3.01$  7.94$
|183>   Q  -1.3290  4.93$  2.82$  7.73$
|184>   Q  0.6645  18.67$  7.31$  13.82$
|185>   Q  0.6645  18.43$  7.71$  15.28$
|186>   Q  -1.3290  18.88$  7.64$  14.57$
|187>   Q  0.6645  12.17$  9.43$  21.03$
|188>   Q  0.6645  10.96$  8.93$  21.78$
|189>   Q  -1.3290  11.36$  9.26$  21.13$
|190>   Q  0.6645  5.17$  15.23$  13.37$
|191>   Q  0.6645  6.36$  14.29$  14.01$
|192>   Q  -1.3290  5.6$  14.69$  13.94$
|193>   Q  0.6645  7.64$  11.5$  -0.03$
|194>   Q  0.6645  6.21$  11.38$  0.8$
|195>   Q  -1.3290  7.06$  11.28$  0.64$
|196>   Q  0.6645  9.09$  1.56$  13.25$
|197>   Q  0.6645  8.84$  0.85$  11.88$
|198>   Q  -1.3290  8.74$  1.47$  12.47$
|199>   Q  0.6645  8.33$  4.12$  2.67$
|200>   Q  0.6645  8.35$  5.62$  2.72$
|201>   Q  -1.3290  8.24$  4.85$  3.04$
|202>   Q  0.6645  6.03$  8.38$  4.01$
|203>   Q  0.6645  4.82$  8.38$  4.77$
|204>   Q  -1.3290  5.29$  8.08$  4.17$
|205>   Q  0.6645  16.38$  16.43$  11.05$
|206>   Q  0.6645  15.16$  16.44$  12.02$
|207>   Q  -1.3290  15.77$  16.76$  11.54$
|208>   Q  0.6645  4.52$  11.15$  6.44$
|209>   Q  0.6645  5.33$  11.82$  5.45$
|210>   Q  -1.3290  4.62$  11.57$  5.76$
|211>   Q  0.6645  15.29$  4.98$  12.8$
|212>   Q  0.6645  16.62$  5.57$  13.05$
|213>   Q  -1.3290  15.96$  5.11$  13.25$
|214>   Q  0.6645  17.07$  5.7$  5$
|215>   Q  0.6645  16.07$  5.66$  6.14$
|216>   Q  -1.3290  16.41$  5.4$  5.39$
|217>   Q  0.6645  2.66$  8.36$  6.47$
|218>   Q  0.6645  3.7$  9.31$  7.01$
|219>   Q  -1.3290  3.35$  8.8$  6.44$
|220>   Q  0.6645  14.32$  10.6$  21.33$
|221>   Q  0.6645  14.55$  9.81$  20.08$
|222>   Q  -1.3290  14.21$  9.96$  20.84$
|223>   Q  0.6645  14.82$  17.43$  2.53$
|224>   Q  0.6645  13.35$  17.43$  3.25$
|225>   Q  -1.3290  14.24$  17.4$  3.21$
|226>   Q  0.6645  10.47$  15.8$  16.73$
|227>   Q  0.6645  11.73$  15.65$  17.66$
|228>   Q  -1.3290  11.24$  16$  17.08$
|229>   Q  0.6645  10.83$  17.82$  3.46$
|230>   Q  0.6645  11.19$  18.74$  2.1$
|231>   Q  -1.3290  11.18$  18.5$  2.97$
|232>   Q  0.6645  17.25$  8.47$  4.42$
|233>   Q  0.6645  15.64$  8.49$  4.46$
|234>   Q  -1.3290  16.42$  8.82$  4.43$
|235>   Q  0.6645  16.16$  16.52$  7.14$
|236>   Q  0.6645  17.38$  15.7$  7.71$
|237>   Q  -1.3290  16.92$  16.4$  7.53$
|238>   Q  0.6645  13.43$  6.2$  11.88$
|239>   Q  0.6645  12.78$  5.07$  12.68$
|240>   Q  -1.3290  13.32$  5.41$  12.14$
|241>   Q  0.6645  10.03$  18.4$  11.23$
|242>   Q  0.6645  9.11$  19.22$  10.45$
|243>   Q  -1.3290  9.82$  18.85$  10.6$
|244>   Q  0.6645  21.66$  10.61$  5.15$
|245>   Q  0.6645  22.2$  9.29$  5.89$
|246>   Q  -1.3290  21.65$  9.77$  5.42$
|247>   Q  0.6645  14.18$  3.06$  9.76$
|248>   Q  0.6645  14.29$  4.21$  10.79$
|249>   Q  -1.3290  14.56$  3.67$  10.2$
|250>   Q  0.6645  2.99$  17.45$  9.87$
|251>   Q  0.6645  1.96$  18.49$  10.26$
|252>   Q  -1.3290  2.63$  17.99$  10.38$
|253>   Q  0.6645  -0.66$  9.81$  10.34$
|254>   Q  0.6645  0.93$  9.95$  10.54$
|255>   Q  -1.3290  0.13$  10.15$  10.25$
|256>   Q  0.6645  17.52$  10.46$  9.2$
|257>   Q  0.6645  16.03$  10.79$  9.18$
|258>   Q  -1.3290  16.71$  10.34$  9.37$
|259>   Q  0.6645  19.25$  7.57$  11.45$
|260>   Q  0.6645  20.29$  7.84$  10.32$
|261>   Q  -1.3290  19.83$  8.02$  11$
|262>   Q  0.6645  1.98$  5.4$  10.42$
|263>   Q  0.6645  2.57$  5.9$  8.94$
|264>   Q  -1.3290  2.31$  5.96$  9.79$
|265>   Q  0.6645  2.38$  12.39$  12.83$
|266>   Q  0.6645  3.6$  12.78$  13.72$
|267>   Q  -1.3290  3.18$  12.36$  13.13$
|268>   Q  0.6645  11.53$  12.47$  0.91$
|269>   Q  0.6645  11.91$  12.93$  2.26$
|270>   Q  -1.3290  11.62$  12.35$  1.73$
|271>   Q  0.6645  2.96$  10.91$  17.37$
|272>   Q  0.6645  2.66$  9.84$  18.56$
|273>   Q  -1.3290  2.53$  10.31$  17.83$
|274>   Q  0.6645  8.7$  16.38$  7.06$
|275>   Q  0.6645  10.13$  16.47$  7.53$
|276>   Q  -1.3290  9.41$  16.06$  7.34$
|277>   Q  0.6645  16.41$  8.49$  10.15$
|278>   Q  0.6645  15.09$  7.94$  10.54$
|279>   Q  -1.3290  15.92$  7.95$  10.52$
|280>   Q  0.6645  12.37$  1$  16.18$
|281>   Q  0.6645  12.31$  1.43$  14.65$
|282>   Q  -1.3290  12.07$  1.03$  15.37$
|283>   Q  0.6645  10.84$  6.24$  4.35$
|284>   Q  0.6645  11.54$  6.06$  3.05$
|285>   Q  -1.3290  11.46$  6.4$  3.78$
|286>   Q  0.6645  5.61$  11.17$  11.08$
|287>   Q  0.6645  4.77$  12.28$  11.8$
|288>   Q  -1.3290  5.43$  11.94$  11.37$
|289>   Q  0.6645  8.38$  6.04$  0.69$
|290>   Q  0.6645  9.13$  7.18$  1.32$
|291>   Q  -1.3290  8.46$  6.72$  1.17$
|292>   Q  0.6645  8.6$  16.51$  2.81$
|293>   Q  0.6645  8.94$  16.3$  4.25$
|294>   Q  -1.3290  9.09$  16.24$  3.44$
|295>   Q  0.6645  13.76$  20.06$  11.78$
|296>   Q  0.6645  14.05$  21.48$  12.4$
|297>   Q  -1.3290  13.79$  20.66$  12.37$
|298>   Q  0.6645  17.82$  17.4$  9.14$
|299>   Q  0.6645  18.01$  18.33$  10.43$
|300>   Q  -1.3290  18.27$  17.79$  9.77$
|301>   Q  0.6645  3.6$  4.58$  7.41$
|302>   Q  0.6645  2.75$  5.28$  6.31$
|303>   Q  -1.3290  3.07$  5.18$  7.11$
|304>   Q  0.6645  11.84$  15.5$  1.65$
|305>   Q  0.6645  11.15$  15.16$  3.04$
|306>   Q  -1.3290  11.8$  15.15$  2.43$
|307>   Q  0.6645  10.54$  4.12$  13.91$
|308>   Q  0.6645  10.79$  5.41$  14.55$
|309>   Q  -1.3290  10.88$  4.88$  13.94$
|310>   Q  0.6645  20.55$  10.71$  6.94$
|311>   Q  0.6645  19.99$  11.19$  8.32$
|312>   Q  -1.3290  20.04$  10.73$  7.62$
|313>   Q  0.6645  6.3$  13.83$  8.1$
|314>   Q  0.6645  7.7$  14.38$  8.41$
|315>   Q  -1.3290  7.04$  14.17$  7.91$
|316>   Q  0.6645  11.95$  1.98$  8.12$
|317>   Q  0.6645  12$  2.19$  9.47$
|318>   Q  -1.3290  12.31$  1.9$  8.82$
|319>   Q  0.6645  10.96$  16.57$  12.42$
|320>   Q  0.6645  10.63$  15.36$  11.55$
|321>   Q  -1.3290  11.14$  15.79$  12.08$
|322>   Q  0.6645  7.35$  20.3$  9.93$
|323>   Q  0.6645  6.99$  19$  10.79$
|324>   Q  -1.3290  7$  19.53$  10.1$
|325>   Q  0.6645  0.49$  11.92$  11.44$
|326>   Q  0.6645  0.32$  13.34$  11.37$
|327>   Q  -1.3290  0.54$  12.66$  11.77$
|328>   Q  0.6645  7.91$  14.78$  20.7$
|329>   Q  0.6645  8.31$  14.1$  19.41$
|330>   Q  -1.3290  7.98$  14.7$  19.85$
|331>   Q  0.6645  1.72$  9.32$  16.05$
|332>   Q  0.6645  1.94$  9.18$  14.47$
|333>   Q  -1.3290  1.53$  9.14$  15.25$
|334>   Q  0.6645  5.59$  5.01$  14.55$
|335>   Q  0.6645  4.45$  4.85$  13.57$
|336>   Q  -1.3290  4.8$  4.83$  14.34$
|337>   Q  0.6645  18.72$  8.14$  6.18$
|338>   Q  0.6645  19.74$  8.49$  5.12$
|339>   Q  -1.3290  19.02$  8.14$  5.41$
|340>   Q  0.6645  16.2$  13.49$  19.92$
|341>   Q  0.6645  16.09$  12.95$  21.34$
|342>   Q  -1.3290  16.48$  13.24$  20.67$
|343>   Q  0.6645  16.72$  8.83$  17.4$
|344>   Q  0.6645  16.58$  9.12$  15.84$
|345>   Q  -1.3290  16.94$  8.82$  16.54$
|346>   Q  0.6645  8.33$  1.15$  7.07$
|347>   Q  0.6645  8.15$  2.49$  7.92$
|348>   Q  -1.3290  8.54$  1.93$  7.39$
|349>   Q  0.6645  4.79$  2.95$  11.41$
|350>   Q  0.6645  4.48$  3.27$  9.91$
|351>   Q  -1.3290  4.29$  3.03$  10.72$
|352>   Q  0.6645  17.12$  13.45$  7.68$
|353>   Q  0.6645  18.54$  13.58$  7.04$
|354>   Q  -1.3290  17.97$  13.61$  7.65$
|355>   Q  0.6645  20.37$  4.35$  10.51$
|356>   Q  0.6645  18.96$  4.58$  9.85$
|357>   Q  -1.3290  19.55$  4.6$  10.5$
|358>   Q  0.6645  2.14$  8.14$  10.41$
|359>   Q  0.6645  2.99$  9.35$  10.08$
|360>   Q  -1.3290  2.49$  8.89$  10.56$
|361>   Q  0.6645  14.95$  20.36$  7.65$
|362>   Q  0.6645  14.59$  18.75$  7.63$
|363>   Q  -1.3290  14.91$  19.52$  7.35$
|364>   Q  0.6645  11.52$  1.67$  6.07$
|365>   Q  0.6645  10.26$  2.37$  6.69$
|366>   Q  -1.3290  11.06$  2.33$  6.37$
|367>   Q  0.6645  7.39$  12.6$  14.69$
|368>   Q  0.6645  8.36$  13.92$  14.64$
|369>   Q  -1.3290  7.91$  13.23$  14.34$
|370>   Q  0.6645  17.41$  14.13$  3.68$
|371>   Q  0.6645  17.63$  12.6$  3.6$
|372>   Q  -1.3290  17.6$  13.38$  3.97$
|373>   Q  0.6645  9.06$  20.3$  14.63$
|374>   Q  0.6645  9.8$  21.13$  13.6$
|375>   Q  -1.3290  9.34$  21.03$  14.29$
|376>   Q  0.6645  11.73$  4.01$  16.18$
|377>   Q  0.6645  10.38$  4.01$  16.9$
|378>   Q  -1.3290  11.1$  4.33$  16.65$
|379>   Q  0.6645  17.45$  10.69$  1.67$
|380>   Q  0.6645  16.59$  10.29$  2.89$
|381>   Q  -1.3290  16.92$  10.82$  2.33$
|382>   Q  0.6645  15.98$  14.21$  17.24$
|383>   Q  0.6645  15.41$  15.51$  17.92$
|384>   Q  -1.3290  15.61$  14.65$  17.85$
|385>   Q  0.6645  8.99$  17.74$  18.26$
|386>   Q  0.6645  8.19$  16.5$  18.92$
|387>   Q  -1.3290  8.35$  17.33$  18.71$
|388>   Q  0.6645  18.96$  17$  14.22$
|389>   Q  0.6645  18.13$  15.77$  14.25$
|390>   Q  -1.3290  18.43$  16.47$  14.56$
|391>   Q  0.6645  12.98$  16.45$  21.82$
|392>   Q  0.6645  12.43$  16.01$  20.59$
|393>   Q  -1.3290  12.36$  16.23$  21.37$
|394>   Q  0.6645  2.61$  9.18$  2.53$
|395>   Q  0.6645  3.83$  8.22$  2.8$
|396>   Q  -1.3290  3.19$  8.58$  2.34$
|397>   Q  0.6645  18.37$  11.73$  12.28$
|398>   Q  0.6645  19.55$  11.04$  12.89$
|399>   Q  -1.3290  19.13$  11.42$  12.25$
|400>   Q  0.6645  13.72$  2$  12.98$
|401>   Q  0.6645  12.61$  2.89$  12.53$
|402>   Q  -1.3290  13$  2.39$  13.07$
|403>   Q  0.6645  3.06$  12.92$  5.47$
|404>   Q  0.6645  1.51$  13.02$  5.19$
|405>   Q  -1.3290  2.26$  13.28$  5.46$
|406>   Q  0.6645  12.48$  20$  13.68$
|407>   Q  0.6645  11.94$  20.63$  14.94$
|408>   Q  -1.3290  12.04$  20.02$  14.39$
|409>   Q  0.6645  10.8$  17.89$  9.08$
|410>   Q  0.6645  12.06$  17.99$  8.13$
|411>   Q  -1.3290  11.23$  17.95$  8.31$
|412>   Q  0.6645  7.29$  5.42$  18.39$
|413>   Q  0.6645  6.97$  4.07$  17.63$
|414>   Q  -1.3290  7.05$  4.6$  18.32$
|415>   Q  0.6645  6.73$  16.82$  5.31$
|416>   Q  0.6645  7.58$  18.01$  5.34$
|417>   Q  -1.3290  7.43$  17.21$  5.5$
|418>   Q  0.6645  4$  11.11$  2.56$
|419>   Q  0.6645  4.09$  11.36$  1.08$
|420>   Q  -1.3290  4.39$  11.37$  1.85$
|421>   Q  0.6645  3.77$  13.36$  8.65$
|422>   Q  0.6645  4.75$  12.85$  9.77$
|423>   Q  -1.3290  4.51$  13.09$  8.97$
|424>   Q  0.6645  11.01$  14.37$  21.23$
|425>   Q  0.6645  9.81$  13.87$  22.04$
|426>   Q  -1.3290  10.52$  13.79$  21.56$
|427>   Q  0.6645  14.71$  12.73$  8.49$
|428>   Q  0.6645  14.79$  12.51$  9.99$
|429>   Q  -1.3290  14.77$  12.27$  9.2$
|430>   Q  0.6645  13.94$  5.59$  19.31$
|431>   Q  0.6645  13.5$  5.44$  20.86$
|432>   Q  -1.3290  13.48$  5.31$  20.03$
|433>   Q  0.6645  21.77$  6.61$  16.27$
|434>   Q  0.6645  20.54$  6.94$  15.4$
|435>   Q  -1.3290  21.1$  6.42$  15.77$
|436>   Q  0.6645  9.75$  14.4$  6.01$
|437>   Q  0.6645  9.03$  13.21$  5.26$
|438>   Q  -1.3290  9.69$  13.74$  5.46$
|439>   Q  0.6645  16.35$  6.15$  18.47$
|440>   Q  0.6645  15.21$  6.36$  17.37$
|441>   Q  -1.3290  15.56$  6.24$  18.15$
|442>   Q  0.6645  19.22$  13.04$  9.06$
|443>   Q  0.6645  19.64$  12.2$  10.39$
|444>   Q  -1.3290  19.74$  12.66$  9.65$
|445>   Q  0.6645  4.23$  12.51$  17.95$
|446>   Q  0.6645  3.57$  12.83$  16.68$
|447>   Q  -1.3290  4.05$  12.38$  17.15$
|448>   Q  0.6645  14.71$  6.31$  4.56$
|449>   Q  0.6645  13.54$  7.1$  4.11$
|450>   Q  -1.3290  14.29$  7.01$  4.42$
|451>   Q  0.6645  10.6$  18.58$  13.76$
|452>   Q  0.6645  9.23$  17.88$  13.67$
|453>   Q  -1.3290  10.03$  18.03$  13.44$
|454>   Q  0.6645  1.71$  11.1$  3.98$
|455>   Q  0.6645  2.89$  10.24$  4.64$
|456>   Q  -1.3290  2.43$  10.63$  4$
|457>   Q  0.6645  7.25$  7.92$  21.98$
|458>   Q  0.6645  6.71$  9.35$  21.97$
|459>   Q  -1.3290  6.77$  8.57$  21.69$
|460>   Q  0.6645  3.28$  4.44$  3.68$
|461>   Q  0.6645  4.18$  4.51$  4.91$
|462>   Q  -1.3290  3.45$  4.4$  4.5$
|463>   Q  0.6645  6.09$  11.49$  19.31$
|464>   Q  0.6645  5.09$  12.17$  20.1$
|465>   Q  -1.3290  5.68$  12.17$  19.54$
|466>   Q  0.6645  9$  2.8$  15.03$
|467>   Q  0.6645  10.51$  2.25$  15.05$
|468>   Q  -1.3290  9.82$  2.71$  14.8$
|469>   Q  0.6645  5.14$  13.16$  2.73$
|470>   Q  0.6645  5.82$  14.45$  2.13$
|471>   Q  -1.3290  5.69$  13.82$  2.7$
|472>   Q  0.6645  10.02$  11.19$  2.52$
|473>   Q  0.6645  8.53$  11.07$  2.06$
|474>   Q  -1.3290  9.22$  10.87$  2.54$
|475>   Q  0.6645  21.51$  9.61$  14.63$
|476>   Q  0.6645  20.15$  9.16$  13.93$
|477>   Q  -1.3290  20.74$  9.71$  14.23$
|478>   Q  0.6645  5.34$  14.23$  19.64$
|479>   Q  0.6645  4.8$  15.14$  20.76$
|480>   Q  -1.3290  4.81$  14.8$  19.97$
|481>   Q  0.6645  18.1$  18.82$  13$
|482>   Q  0.6645  16.87$  18.21$  12.41$
|483>   Q  -1.3290  17.42$  18.83$  12.54$
|484>   Q  0.6645  3.92$  6.06$  15.58$
|485>   Q  0.6645  2.56$  6.74$  15.29$
|486>   Q  -1.3290  3.27$  6.57$  15.76$
|487>   Q  0.6645  13.53$  2.37$  17.58$
|488>   Q  0.6645  12.82$  1.32$  18.43$
|489>   Q  -1.3290  13.31$  1.58$  17.82$
|490>   Q  0.6645  0.47$  10.8$  8.34$
|491>   Q  0.6645  1.2$  12.1$  7.87$
|492>   Q  -1.3290  0.94$  11.29$  7.8$
|493>   Q  0.6645  4.03$  14.69$  15.04$
|494>   Q  0.6645  2.55$  14.85$  14.94$
|495>   Q  -1.3290  3.24$  14.66$  15.32$
|496>   Q  0.6645  14.27$  5.37$  7.48$
|497>   Q  0.6645  15.16$  4.61$  8.67$
|498>   Q  -1.3290  15.01$  5.02$  7.87$
|499>   Q  0.6645  15.43$  14.79$  2.39$
|500>   Q  0.6645  13.82$  14.72$  2.57$
|501>   Q  -1.3290  14.61$  14.47$  2.37$
|502>   Q  0.6645  5.43$  15.62$  4.08$
|503>   Q  0.6645  4.25$  16.44$  4.65$
|504>   Q  -1.3290  5.06$  16.18$  4.58$
|505>   Q  0.6645  9.15$  18.86$  16.03$
|506>   Q  0.6645  7.76$  18.28$  15.64$
|507>   Q  -1.3290  8.43$  18.79$  15.58$
|508>   Q  0.6645  9.16$  7.04$  19.21$
|509>   Q  0.6645  8.2$  7.99$  19.8$
|510>   Q  -1.3290  8.43$  7.24$  19.49$
|511>   Q  0.6645  11.56$  3.19$  4.16$
|512>   Q  0.6645  11.51$  3.45$  2.64$
|513>   Q  -1.3290  11.45$  2.98$  3.35$
|514>   Q  0.6645  4.02$  6.3$  11.56$
|515>   Q  0.6645  5.54$  6.65$  11.63$
|516>   Q  -1.3290  4.73$  6.8$  11.5$
|517>   Q  0.6645  15.27$  13.09$  6.18$
|518>   Q  0.6645  14.87$  14.58$  6.63$
|519>   Q  -1.3290  15.3$  13.82$  6.66$
|520>   Q  0.6645  13.94$  4.41$  15.85$
|521>   Q  0.6645  13.57$  3.35$  14.8$
|522>   Q  -1.3290  13.67$  3.65$  15.57$
|523>   Q  0.6645  13.09$  18.02$  15.12$
|524>   Q  0.6645  12.69$  16.76$  15.8$
|525>   Q  -1.3290  13.21$  17.23$  15.33$
|526>   Q  0.6645  18.13$  5.86$  11.76$
|527>   Q  0.6645  17.4$  7.19$  11.64$
|528>   Q  -1.3290  17.82$  6.56$  12.04$
|529>   Q  0.6645  10.67$  20.81$  6.84$
|530>   Q  0.6645  10.61$  19.68$  7.61$
|531>   Q  -1.3290  10.33$  20.36$  7.39$
|532>   Q  0.6645  17.78$  6.87$  8.36$
|533>   Q  0.6645  17.71$  8.45$  8.31$
|534>   Q  -1.3290  18.05$  7.66$  8.25$
|535>   Q  0.6645  21.18$  6.22$  8.94$
|536>   Q  0.6645  19.99$  7.25$  8.57$
|537>   Q  -1.3290  20.81$  6.99$  8.8$
|538>   Q  0.6645  3.19$  15.14$  10.24$
|539>   Q  0.6645  2.21$  14.23$  10.91$
|540>   Q  -1.3290  2.87$  14.7$  10.87$
|541>   Q  0.6645  18.38$  15.61$  17.14$
|542>   Q  0.6645  18.42$  16.18$  18.59$
|543>   Q  -1.3290  18.74$  15.85$  17.86$
|544>   Q  0.6645  18.21$  4.19$  7.79$
|545>   Q  0.6645  16.93$  4.89$  8.64$
|546>   Q  -1.3290  17.73$  4.57$  8.45$
|547>   Q  0.6645  15.26$  12.34$  4.17$
|548>   Q  0.6645  14.16$  11.36$  4.38$
|549>   Q  -1.3290  14.67$  11.94$  4.64$
|550>   Q  0.6645  11.73$  5.55$  7.45$
|551>   Q  0.6645  12.39$  5.98$  6.12$
|552>   Q  -1.3290  12.33$  5.9$  6.98$
|553>   Q  0.6645  6.34$  2.72$  15.69$
|554>   Q  0.6645  7.3$  2.07$  16.46$
|555>   Q  -1.3290  7.04$  2.73$  16.06$
|556>   Q  0.6645  15.31$  11.31$  1.3$
|557>   Q  0.6645  14.4$  12.62$  1.27$
|558>   Q  -1.3290  14.71$  11.87$  0.98$
|559>   Q  0.6645  11.02$  3.88$  10.61$
|560>   Q  0.6645  10.3$  2.93$  11.58$
|561>   Q  -1.3290  10.94$  3.18$  11.05$
|562>   Q  0.6645  2.61$  10.57$  8.29$
|563>   Q  0.6645  4.09$  11.16$  8.66$
|564>   Q  -1.3290  3.44$  10.57$  8.58$
|565>   Q  0.6645  9.32$  5.04$  4.71$
|566>   Q  0.6645  10.2$  4.21$  5.71$
|567>   Q  -1.3290  9.85$  4.91$  5.37$
|568>   Q  0.6645  16.92$  3.36$  16.42$
|569>   Q  0.6645  16.99$  4.1$  15.07$
|570>   Q  -1.3290  17.1$  3.99$  15.91$
|571>   Q  0.6645  11.77$  11.03$  5.7$
|572>   Q  0.6645  12.68$  9.78$  5.82$
|573>   Q  -1.3290  11.99$  10.22$  5.56$
|574>   Q  0.6645  14.88$  8.87$  2.1$
|575>   Q  0.6645  14.48$  8.74$  0.53$
|576>   Q  -1.3290  14.81$  8.5$  1.31$
|577>   Q  0.6645  15.98$  2.23$  7.2$
|578>   Q  0.6645  15.24$  3.22$  6.37$
|579>   Q  -1.3290  15.54$  2.48$  6.53$
|580>   Q  0.6645  11.62$  22.39$  11.92$
|581>   Q  0.6645  11.98$  21.03$  11.89$
|582>   Q  -1.3290  11.42$  21.61$  11.81$
|583>   Q  0.6645  12.14$  19.7$  9.86$
|584>   Q  0.6645  13.63$  20.25$  9.67$
|585>   Q  -1.3290  12.99$  19.72$  9.96$
|586>   Q  0.6645  6.36$  17.84$  13.06$
|587>   Q  0.6645  6.69$  19.44$  12.88$
|588>   Q  -1.3290  6.74$  18.56$  12.75$
|589>   Q  0.6645  9.6$  11.86$  20.36$
|590>   Q  0.6645  9.64$  10.26$  20.73$
|591>   Q  -1.3290  9.34$  11.08$  20.69$
|592>   Q  0.6645  21.17$  13.05$  13.46$
|593>   Q  0.6645  20.72$  13.36$  14.86$
|594>   Q  -1.3290  20.87$  13.54$  14.07$
|595>   Q  0.6645  2.97$  16.78$  7.68$
|596>   Q  0.6645  4.23$  16.45$  8.49$
|597>   Q  -1.3290  3.4$  16.57$  8.37$
|598>   Q  0.6645  8.74$  14.91$  2.16$
|599>   Q  0.6645  7.91$  13.61$  1.94$
|600>   Q  -1.3290  8.36$  14.29$  1.69$
|601>   Q  0.6645  7.01$  2.25$  12.43$
|602>   Q  0.6645  5.8$  2.36$  13.41$
|603>   Q  -1.3290  6.19$  2.35$  12.63$
|604>   Q  0.6645  20.42$  4.82$  15.58$
|605>   Q  0.6645  18.93$  4.03$  15.64$
|606>   Q  -1.3290  19.84$  4.13$  15.49$
|607>   Q  0.6645  7.06$  13.3$  6.01$
|608>   Q  0.6645  6.83$  13.2$  4.52$
|609>   Q  -1.3290  7.01$  12.91$  5.28$
|610>   Q  0.6645  13.64$  11.3$  16.57$
|611>   Q  0.6645  12.75$  9.98$  16.7$
|612>   Q  -1.3290  13.3$  10.59$  16.92$
|613>   Q  0.6645  5.85$  9.35$  18.58$
|614>   Q  0.6645  6.4$  9.16$  19.93$
|615>   Q  -1.3290  6.26$  9.57$  19.25$
|616>   Q  0.6645  1.88$  13.95$  7.36$
|617>   Q  0.6645  1.52$  14.42$  8.85$
|618>   Q  -1.3290  1.8$  13.9$  8.23$
|619>   Q  0.6645  13.23$  15.16$  12.56$
|620>   Q  0.6645  13.96$  15.79$  13.7$
|621>   Q  -1.3290  13.92$  15.37$  12.96$
|622>   Q  0.6645  15.68$  0.94$  12.05$
|623>   Q  0.6645  15.27$  2.16$  11.45$
|624>   Q  -1.3290  15.11$  1.45$  11.82$
|625>   Q  0.6645  12.61$  13.75$  19.09$
|626>   Q  0.6645  13.89$  14.52$  18.78$
|627>   Q  -1.3290  13.1$  14.44$  19.08$
|628>   Q  0.6645  20.04$  13.8$  17.45$
|629>   Q  0.6645  19.68$  12.44$  16.63$
|630>   Q  -1.3290  20.15$  13.08$  16.94$
|631>   Q  0.6645  19.35$  10.93$  15.29$
|632>   Q  0.6645  18.48$  10.41$  16.35$
|633>   Q  -1.3290  18.76$  11$  15.85$
|634>   Q  0.6645  1.81$  15.48$  12.89$
|635>   Q  0.6645  0.69$  14.9$  13.71$
|636>   Q  -1.3290  1.35$  15.37$  13.57$
|637>   Q  0.6645  5.65$  6.13$  4.2$
|638>   Q  0.6645  6.72$  5.05$  4.19$
|639>   Q  -1.3290  6$  5.39$  4.45$
|640>   Q  0.6645  16.17$  13.67$  11.3$
|641>   Q  0.6645  14.84$  13.87$  12.23$
|642>   Q  -1.3290  15.42$  13.48$  11.72$
|643>   Q  0.6645  7.64$  10.83$  16.78$
|644>   Q  0.6645  7.78$  10.36$  18.26$
|645>   Q  -1.3290  8.01$  10.45$  17.44$
|646>   Q  0.6645  14.42$  9.74$  18.06$
|647>   Q  0.6645  15.09$  8.44$  18.45$
|648>   Q  -1.3290  15.02$  9.27$  18.45$
|649>   Q  0.6645  6.15$  16.83$  7.75$
|650>   Q  0.6645  6.56$  17.5$  9.06$
|651>   Q  -1.3290  6.09$  16.94$  8.57$
|652>   Q  0.6645  10.29$  12.88$  18.57$
|653>   Q  0.6645  9.01$  12.12$  17.93$
|654>   Q  -1.3290  9.55$  12.79$  18.12$
|655>   Q  0.6645  15.72$  13.04$  15.46$
|656>   Q  0.6645  17.12$  12.36$  15.82$
|657>   Q  -1.3290  16.58$  13.01$  15.63$
|658>   Q  0.6645  14.36$  16.41$  5.16$
|659>   Q  0.6645  14.18$  16.96$  6.45$
|660>   Q  -1.3290  14.33$  16.34$  5.96$
|661>   Q  0.6645  10.7$  4.86$  0.66$
|662>   Q  0.6645  12.16$  5.23$  1.21$
|663>   Q  -1.3290  11.39$  4.87$  1.22$
|664>   Q  0.6645  8.53$  4.2$  20.97$
|665>   Q  0.6645  8.8$  5.66$  20.58$
|666>   Q  -1.3290  8.88$  4.95$  21.03$
|667>   Q  0.6645  17.94$  14.87$  11.57$
|668>   Q  0.6645  18.19$  14.94$  10$
|669>   Q  -1.3290  17.74$  14.94$  10.74$
|670>   Q  0.6645  3.4$  10.2$  13.34$
|671>   Q  0.6645  3.49$  9.05$  12.27$
|672>   Q  -1.3290  3.59$  9.42$  13.04$
|673> *
|674> 
|675>                          ****END OF INPUT****
================================================================================

                     *******************************
                     * Energy+Gradient Calculation *
                     *******************************

---------------------------------
CARTESIAN COORDINATES (ANGSTROEM)
---------------------------------
  C      9.690000   11.070000    9.080000
  H     10.020000   11.590000    8.220000
  H      8.710000   11.430000    9.340000
  C     10.790000   11.240000   10.180000
  H     11.700000   10.680000    9.830000
  H     11.030000   12.300000   10.260000
  C     10.490000   10.630000   11.590000
  H     10.370000    9.500000   11.430000
  H      9.490000   10.930000   11.880000
  C     11.440000   10.910000   12.710000
  H     10.970000   10.640000   13.630000
  H     11.770000   11.980000   12.770000
  O     12.620000   10.080000   12.540000
  H     13.090000   10.190000   13.370000
  O      9.480000    9.610000    8.780000
  H      8.730000    9.630000    8.160000
  O      6.900000    9.390000    7.530000
  H      7.150000    9.720000    6.670000
  H      6.650000    8.470000    7.340000
  O      8.120000    8.320000   12.400000
  H      8.910000    7.810000   12.330000
  H      8.020000    8.630000   11.450000
  O     12.310000   14.690000    8.450000
  H     12.240000   13.900000    7.920000
  H     11.730000   14.510000    9.200000
  O     12.200000    8.090000   14.800000
  H     11.680000    7.980000   13.970000
  H     11.490000    8.040000   15.440000
  O     12.120000    8.350000    8.750000
  H     12.770000    8.800000    8.250000
  H     11.210000    8.730000    8.670000
  O      8.890000    7.150000    9.700000
  H      8.250000    6.780000    9.060000
  H      9.080000    8.060000    9.420000
  O     14.200000    9.930000    7.690000
  H     14.990000    9.990000    7.120000
  H     14.210000   10.700000    8.340000
  O     13.240000    7.790000   11.020000
  H     12.810000    8.060000   10.170000
  H     13.140000    8.590000   11.600000
  O      7.390000    5.860000   14.240000
  H      8.290000    5.880000   14.630000
  H      7.220000    6.820000   14.220000
  O      5.240000    7.200000    8.390000
  H      4.980000    7.010000    9.340000
  H      4.500000    6.730000    7.930000
  O     10.430000    8.770000   17.040000
  H     10.520000    8.380000   17.990000
  H      9.730000    9.430000   17.070000
  O     15.130000    9.680000   14.700000
  H     14.690000    8.840000   14.910000
  H     15.370000    9.710000   13.710000
  O      8.030000   13.720000   11.460000
  H      7.220000   13.250000   11.080000
  H      8.090000   13.370000   12.380000
  O     14.590000    6.380000   15.500000
  H     15.170000    6.250000   14.700000
  H     13.720000    6.640000   15.130000
  O      9.600000    6.340000   15.670000
  H      9.590000    7.180000   16.180000
  H     10.000000    5.730000   16.290000
  O     12.010000   12.770000    6.530000
  H     12.800000   12.850000    5.940000
  H     11.230000   13.120000    6.090000
  O     14.230000   12.390000   15.050000
  H     13.410000   12.740000   14.600000
  H     14.580000   11.740000   14.470000
  O      6.190000    8.990000   14.350000
  H      7.010000    8.870000   13.800000
  H      5.440000    9.270000   13.780000
  O     10.610000    7.270000   12.530000
  H     11.160000    7.210000   11.720000
  H     10.500000    6.370000   12.820000
  O      6.080000    9.150000   10.370000
  H      5.860000    8.950000    9.460000
  H      5.620000    8.540000   10.980000
  O      7.330000    5.920000    7.260000
  H      6.500000    6.370000    7.470000
  H      7.300000    5.910000    6.300000
  O     15.790000   10.600000   12.170000
  H     16.190000   10.280000   11.330000
  H     15.370000   11.450000   11.890000
  O      7.140000    3.870000    8.950000
  H      7.250000    4.600000    8.320000
  H      7.050000    4.380000    9.820000
  O     13.720000   17.270000    8.510000
  H     13.910000   17.640000    9.360000
  H     13.490000   16.320000    8.700000
  O      9.520000    8.030000    5.940000
  H     10.330000    8.500000    5.720000
  H      9.790000    7.180000    6.380000
  O     10.030000   14.640000   10.070000
  H      9.220000   14.320000   10.550000
  H      9.720000   15.190000    9.320000
  O      7.760000    9.560000    4.620000
  H      8.280000    9.910000    3.910000
  H      8.370000    8.950000    5.130000
  O     11.160000    5.730000    9.610000
  H     11.670000    6.280000    9.070000
  H     10.350000    6.200000    9.780000
  O      7.230000    5.480000   11.260000
  H      7.420000    5.320000   12.220000
  H      7.920000    6.120000   11.020000
  O     11.500000   13.800000   14.490000
  H     10.910000   13.690000   15.260000
  H     11.070000   14.350000   13.820000
  Q     10.140000    9.240000    1.990000
  Q     11.130000    8.100000    2.400000
  Q     10.690000    8.590000    1.860000
  Q      4.010000   17.310000   12.430000
  Q      3.630000   17.060000   13.890000
  Q      4.150000   17.040000   13.210000
  Q     16.710000   10.460000    5.780000
  Q     17.990000   10.700000    6.580000
  Q     17.150000   10.710000    6.430000
  Q     10.750000   19.430000   17.900000
  Q     11.060000   18.020000   17.250000
  Q     10.650000   18.770000   17.360000
  Q      6.110000   16.090000   15.180000
  Q      6.250000   16.860000   16.520000
  Q      6.480000   16.600000   15.740000
  Q      4.510000    7.900000   16.740000
  Q      5.640000    8.650000   16.170000
  Q      5.250000    8.320000   16.810000
  Q     19.150000   13.930000   13.460000
  Q     17.700000   13.890000   13.990000
  Q     18.310000   14.080000   13.440000
  Q     12.670000   10.010000    3.770000
  Q     13.080000   10.690000    2.520000
  Q     13.210000   10.210000    3.200000
  Q     11.690000    6.370000   19.130000
  Q     11.190000    7.570000   20.030000
  Q     11.140000    6.960000   19.420000
  Q      6.530000   10.480000   15.160000
  Q      5.660000   11.640000   15.830000
  Q      6.360000   11.240000   15.540000
  Q      9.010000   14.220000   16.840000
  Q      8.080000   15.200000   16.190000
  Q      8.820000   14.770000   16.270000
  Q     19.280000    5.600000   17.630000
  Q     17.860000    5.460000   17.230000
  Q     18.470000    5.690000   17.740000
  Q     12.250000   11.350000   18.640000
  Q     11.790000   11.500000   19.970000
  Q     11.870000   11.760000   19.210000
  Q      0.510000    8.020000    7.810000
  Q      0.890000    7.500000    6.360000
  Q      0.950000    7.990000    7.090000
  Q      2.020000    5.050000   12.550000
  Q      3.210000    4.130000   11.760000
  Q      2.840000    4.750000   12.270000
  Q     16.020000   17.580000   17.010000
  Q     14.620000   17.130000   16.520000
  Q     15.300000   17.170000   17.060000
  Q      4.560000    2.050000    7.620000
  Q      5.730000    3.010000    7.940000
  Q      4.930000    2.820000    7.730000
  Q     18.670000    7.310000   13.820000
  Q     18.430000    7.710000   15.280000
  Q     18.880000    7.640000   14.570000
  Q     12.170000    9.430000   21.030000
  Q     10.960000    8.930000   21.780000
  Q     11.360000    9.260000   21.130000
  Q      5.170000   15.230000   13.370000
  Q      6.360000   14.290000   14.010000
  Q      5.600000   14.690000   13.940000
  Q      7.640000   11.500000   -0.030000
  Q      6.210000   11.380000    0.800000
  Q      7.060000   11.280000    0.640000
  Q      9.090000    1.560000   13.250000
  Q      8.840000    0.850000   11.880000
  Q      8.740000    1.470000   12.470000
  Q      8.330000    4.120000    2.670000
  Q      8.350000    5.620000    2.720000
  Q      8.240000    4.850000    3.040000
  Q      6.030000    8.380000    4.010000
  Q      4.820000    8.380000    4.770000
  Q      5.290000    8.080000    4.170000
  Q     16.380000   16.430000   11.050000
  Q     15.160000   16.440000   12.020000
  Q     15.770000   16.760000   11.540000
  Q      4.520000   11.150000    6.440000
  Q      5.330000   11.820000    5.450000
  Q      4.620000   11.570000    5.760000
  Q     15.290000    4.980000   12.800000
  Q     16.620000    5.570000   13.050000
  Q     15.960000    5.110000   13.250000
  Q     17.070000    5.700000    5.000000
  Q     16.070000    5.660000    6.140000
  Q     16.410000    5.400000    5.390000
  Q      2.660000    8.360000    6.470000
  Q      3.700000    9.310000    7.010000
  Q      3.350000    8.800000    6.440000
  Q     14.320000   10.600000   21.330000
  Q     14.550000    9.810000   20.080000
  Q     14.210000    9.960000   20.840000
  Q     14.820000   17.430000    2.530000
  Q     13.350000   17.430000    3.250000
  Q     14.240000   17.400000    3.210000
  Q     10.470000   15.800000   16.730000
  Q     11.730000   15.650000   17.660000
  Q     11.240000   16.000000   17.080000
  Q     10.830000   17.820000    3.460000
  Q     11.190000   18.740000    2.100000
  Q     11.180000   18.500000    2.970000
  Q     17.250000    8.470000    4.420000
  Q     15.640000    8.490000    4.460000
  Q     16.420000    8.820000    4.430000
  Q     16.160000   16.520000    7.140000
  Q     17.380000   15.700000    7.710000
  Q     16.920000   16.400000    7.530000
  Q     13.430000    6.200000   11.880000
  Q     12.780000    5.070000   12.680000
  Q     13.320000    5.410000   12.140000
  Q     10.030000   18.400000   11.230000
  Q      9.110000   19.220000   10.450000
  Q      9.820000   18.850000   10.600000
  Q     21.660000   10.610000    5.150000
  Q     22.200000    9.290000    5.890000
  Q     21.650000    9.770000    5.420000
  Q     14.180000    3.060000    9.760000
  Q     14.290000    4.210000   10.790000
  Q     14.560000    3.670000   10.200000
  Q      2.990000   17.450000    9.870000
  Q      1.960000   18.490000   10.260000
  Q      2.630000   17.990000   10.380000
  Q     -0.660000    9.810000   10.340000
  Q      0.930000    9.950000   10.540000
  Q      0.130000   10.150000   10.250000
  Q     17.520000   10.460000    9.200000
  Q     16.030000   10.790000    9.180000
  Q     16.710000   10.340000    9.370000
  Q     19.250000    7.570000   11.450000
  Q     20.290000    7.840000   10.320000
  Q     19.830000    8.020000   11.000000
  Q      1.980000    5.400000   10.420000
  Q      2.570000    5.900000    8.940000
  Q      2.310000    5.960000    9.790000
  Q      2.380000   12.390000   12.830000
  Q      3.600000   12.780000   13.720000
  Q      3.180000   12.360000   13.130000
  Q     11.530000   12.470000    0.910000
  Q     11.910000   12.930000    2.260000
  Q     11.620000   12.350000    1.730000
  Q      2.960000   10.910000   17.370000
  Q      2.660000    9.840000   18.560000
  Q      2.530000   10.310000   17.830000
  Q      8.700000   16.380000    7.060000
  Q     10.130000   16.470000    7.530000
  Q      9.410000   16.060000    7.340000
  Q     16.410000    8.490000   10.150000
  Q     15.090000    7.940000   10.540000
  Q     15.920000    7.950000   10.520000
  Q     12.370000    1.000000   16.180000
  Q     12.310000    1.430000   14.650000
  Q     12.070000    1.030000   15.370000
  Q     10.840000    6.240000    4.350000
  Q     11.540000    6.060000    3.050000
  Q     11.460000    6.400000    3.780000
  Q      5.610000   11.170000   11.080000
  Q      4.770000   12.280000   11.800000
  Q      5.430000   11.940000   11.370000
  Q      8.380000    6.040000    0.690000
  Q      9.130000    7.180000    1.320000
  Q      8.460000    6.720000    1.170000
  Q      8.600000   16.510000    2.810000
  Q      8.940000   16.300000    4.250000
  Q      9.090000   16.240000    3.440000
  Q     13.760000   20.060000   11.780000
  Q     14.050000   21.480000   12.400000
  Q     13.790000   20.660000   12.370000
  Q     17.820000   17.400000    9.140000
  Q     18.010000   18.330000   10.430000
  Q     18.270000   17.790000    9.770000
  Q      3.600000    4.580000    7.410000
  Q      2.750000    5.280000    6.310000
  Q      3.070000    5.180000    7.110000
  Q     11.840000   15.500000    1.650000
  Q     11.150000   15.160000    3.040000
  Q     11.800000   15.150000    2.430000
  Q     10.540000    4.120000   13.910000
  Q     10.790000    5.410000   14.550000
  Q     10.880000    4.880000   13.940000
  Q     20.550000   10.710000    6.940000
  Q     19.990000   11.190000    8.320000
  Q     20.040000   10.730000    7.620000
  Q      6.300000   13.830000    8.100000
  Q      7.700000   14.380000    8.410000
  Q      7.040000   14.170000    7.910000
  Q     11.950000    1.980000    8.120000
  Q     12.000000    2.190000    9.470000
  Q     12.310000    1.900000    8.820000
  Q     10.960000   16.570000   12.420000
  Q     10.630000   15.360000   11.550000
  Q     11.140000   15.790000   12.080000
  Q      7.350000   20.300000    9.930000
  Q      6.990000   19.000000   10.790000
  Q      7.000000   19.530000   10.100000
  Q      0.490000   11.920000   11.440000
  Q      0.320000   13.340000   11.370000
  Q      0.540000   12.660000   11.770000
  Q      7.910000   14.780000   20.700000
  Q      8.310000   14.100000   19.410000
  Q      7.980000   14.700000   19.850000
  Q      1.720000    9.320000   16.050000
  Q      1.940000    9.180000   14.470000
  Q      1.530000    9.140000   15.250000
  Q      5.590000    5.010000   14.550000
  Q      4.450000    4.850000   13.570000
  Q      4.800000    4.830000   14.340000
  Q     18.720000    8.140000    6.180000
  Q     19.740000    8.490000    5.120000
  Q     19.020000    8.140000    5.410000
  Q     16.200000   13.490000   19.920000
  Q     16.090000   12.950000   21.340000
  Q     16.480000   13.240000   20.670000
  Q     16.720000    8.830000   17.400000
  Q     16.580000    9.120000   15.840000
  Q     16.940000    8.820000   16.540000
  Q      8.330000    1.150000    7.070000
  Q      8.150000    2.490000    7.920000
  Q      8.540000    1.930000    7.390000
  Q      4.790000    2.950000   11.410000
  Q      4.480000    3.270000    9.910000
  Q      4.290000    3.030000   10.720000
  Q     17.120000   13.450000    7.680000
  Q     18.540000   13.580000    7.040000
  Q     17.970000   13.610000    7.650000
  Q     20.370000    4.350000   10.510000
  Q     18.960000    4.580000    9.850000
  Q     19.550000    4.600000   10.500000
  Q      2.140000    8.140000   10.410000
  Q      2.990000    9.350000   10.080000
  Q      2.490000    8.890000   10.560000
  Q     14.950000   20.360000    7.650000
  Q     14.590000   18.750000    7.630000
  Q     14.910000   19.520000    7.350000
  Q     11.520000    1.670000    6.070000
  Q     10.260000    2.370000    6.690000
  Q     11.060000    2.330000    6.370000
  Q      7.390000   12.600000   14.690000
  Q      8.360000   13.920000   14.640000
  Q      7.910000   13.230000   14.340000
  Q     17.410000   14.130000    3.680000
  Q     17.630000   12.600000    3.600000
  Q     17.600000   13.380000    3.970000
  Q      9.060000   20.300000   14.630000
  Q      9.800000   21.130000   13.600000
  Q      9.340000   21.030000   14.290000
  Q     11.730000    4.010000   16.180000
  Q     10.380000    4.010000   16.900000
  Q     11.100000    4.330000   16.650000
  Q     17.450000   10.690000    1.670000
  Q     16.590000   10.290000    2.890000
  Q     16.920000   10.820000    2.330000
  Q     15.980000   14.210000   17.240000
  Q     15.410000   15.510000   17.920000
  Q     15.610000   14.650000   17.850000
  Q      8.990000   17.740000   18.260000
  Q      8.190000   16.500000   18.920000
  Q      8.350000   17.330000   18.710000
  Q     18.960000   17.000000   14.220000
  Q     18.130000   15.770000   14.250000
  Q     18.430000   16.470000   14.560000
  Q     12.980000   16.450000   21.820000
  Q     12.430000   16.010000   20.590000
  Q     12.360000   16.230000   21.370000
  Q      2.610000    9.180000    2.530000
  Q      3.830000    8.220000    2.800000
  Q      3.190000    8.580000    2.340000
  Q     18.370000   11.730000   12.280000
  Q     19.550000   11.040000   12.890000
  Q     19.130000   11.420000   12.250000
  Q     13.720000    2.000000   12.980000
  Q     12.610000    2.890000   12.530000
  Q     13.000000    2.390000   13.070000
  Q      3.060000   12.920000    5.470000
  Q      1.510000   13.020000    5.190000
  Q      2.260000   13.280000    5.460000
  Q     12.480000   20.000000   13.680000
  Q     11.940000   20.630000   14.940000
  Q     12.040000   20.020000   14.390000
  Q     10.800000   17.890000    9.080000
  Q     12.060000   17.990000    8.130000
  Q     11.230000   17.950000    8.310000
  Q      7.290000    5.420000   18.390000
  Q      6.970000    4.070000   17.630000
  Q      7.050000    4.600000   18.320000
  Q      6.730000   16.820000    5.310000
  Q      7.580000   18.010000    5.340000
  Q      7.430000   17.210000    5.500000
  Q      4.000000   11.110000    2.560000
  Q      4.090000   11.360000    1.080000
  Q      4.390000   11.370000    1.850000
  Q      3.770000   13.360000    8.650000
  Q      4.750000   12.850000    9.770000
  Q      4.510000   13.090000    8.970000
  Q     11.010000   14.370000   21.230000
  Q      9.810000   13.870000   22.040000
  Q     10.520000   13.790000   21.560000
  Q     14.710000   12.730000    8.490000
  Q     14.790000   12.510000    9.990000
  Q     14.770000   12.270000    9.200000
  Q     13.940000    5.590000   19.310000
  Q     13.500000    5.440000   20.860000
  Q     13.480000    5.310000   20.030000
  Q     21.770000    6.610000   16.270000
  Q     20.540000    6.940000   15.400000
  Q     21.100000    6.420000   15.770000
  Q      9.750000   14.400000    6.010000
  Q      9.030000   13.210000    5.260000
  Q      9.690000   13.740000    5.460000
  Q     16.350000    6.150000   18.470000
  Q     15.210000    6.360000   17.370000
  Q     15.560000    6.240000   18.150000
  Q     19.220000   13.040000    9.060000
  Q     19.640000   12.200000   10.390000
  Q     19.740000   12.660000    9.650000
  Q      4.230000   12.510000   17.950000
  Q      3.570000   12.830000   16.680000
  Q      4.050000   12.380000   17.150000
  Q     14.710000    6.310000    4.560000
  Q     13.540000    7.100000    4.110000
  Q     14.290000    7.010000    4.420000
  Q     10.600000   18.580000   13.760000
  Q      9.230000   17.880000   13.670000
  Q     10.030000   18.030000   13.440000
  Q      1.710000   11.100000    3.980000
  Q      2.890000   10.240000    4.640000
  Q      2.430000   10.630000    4.000000
  Q      7.250000    7.920000   21.980000
  Q      6.710000    9.350000   21.970000
  Q      6.770000    8.570000   21.690000
  Q      3.280000    4.440000    3.680000
  Q      4.180000    4.510000    4.910000
  Q      3.450000    4.400000    4.500000
  Q      6.090000   11.490000   19.310000
  Q      5.090000   12.170000   20.100000
  Q      5.680000   12.170000   19.540000
  Q      9.000000    2.800000   15.030000
  Q     10.510000    2.250000   15.050000
  Q      9.820000    2.710000   14.800000
  Q      5.140000   13.160000    2.730000
  Q      5.820000   14.450000    2.130000
  Q      5.690000   13.820000    2.700000
  Q     10.020000   11.190000    2.520000
  Q      8.530000   11.070000    2.060000
  Q      9.220000   10.870000    2.540000
  Q     21.510000    9.610000   14.630000
  Q     20.150000    9.160000   13.930000
  Q     20.740000    9.710000   14.230000
  Q      5.340000   14.230000   19.640000
  Q      4.800000   15.140000   20.760000
  Q      4.810000   14.800000   19.970000
  Q     18.100000   18.820000   13.000000
  Q     16.870000   18.210000   12.410000
  Q     17.420000   18.830000   12.540000
  Q      3.920000    6.060000   15.580000
  Q      2.560000    6.740000   15.290000
  Q      3.270000    6.570000   15.760000
  Q     13.530000    2.370000   17.580000
  Q     12.820000    1.320000   18.430000
  Q     13.310000    1.580000   17.820000
  Q      0.470000   10.800000    8.340000
  Q      1.200000   12.100000    7.870000
  Q      0.940000   11.290000    7.800000
  Q      4.030000   14.690000   15.040000
  Q      2.550000   14.850000   14.940000
  Q      3.240000   14.660000   15.320000
  Q     14.270000    5.370000    7.480000
  Q     15.160000    4.610000    8.670000
  Q     15.010000    5.020000    7.870000
  Q     15.430000   14.790000    2.390000
  Q     13.820000   14.720000    2.570000
  Q     14.610000   14.470000    2.370000
  Q      5.430000   15.620000    4.080000
  Q      4.250000   16.440000    4.650000
  Q      5.060000   16.180000    4.580000
  Q      9.150000   18.860000   16.030000
  Q      7.760000   18.280000   15.640000
  Q      8.430000   18.790000   15.580000
  Q      9.160000    7.040000   19.210000
  Q      8.200000    7.990000   19.800000
  Q      8.430000    7.240000   19.490000
  Q     11.560000    3.190000    4.160000
  Q     11.510000    3.450000    2.640000
  Q     11.450000    2.980000    3.350000
  Q      4.020000    6.300000   11.560000
  Q      5.540000    6.650000   11.630000
  Q      4.730000    6.800000   11.500000
  Q     15.270000   13.090000    6.180000
  Q     14.870000   14.580000    6.630000
  Q     15.300000   13.820000    6.660000
  Q     13.940000    4.410000   15.850000
  Q     13.570000    3.350000   14.800000
  Q     13.670000    3.650000   15.570000
  Q     13.090000   18.020000   15.120000
  Q     12.690000   16.760000   15.800000
  Q     13.210000   17.230000   15.330000
  Q     18.130000    5.860000   11.760000
  Q     17.400000    7.190000   11.640000
  Q     17.820000    6.560000   12.040000
  Q     10.670000   20.810000    6.840000
  Q     10.610000   19.680000    7.610000
  Q     10.330000   20.360000    7.390000
  Q     17.780000    6.870000    8.360000
  Q     17.710000    8.450000    8.310000
  Q     18.050000    7.660000    8.250000
  Q     21.180000    6.220000    8.940000
  Q     19.990000    7.250000    8.570000
  Q     20.810000    6.990000    8.800000
  Q      3.190000   15.140000   10.240000
  Q      2.210000   14.230000   10.910000
  Q      2.870000   14.700000   10.870000
  Q     18.380000   15.610000   17.140000
  Q     18.420000   16.180000   18.590000
  Q     18.740000   15.850000   17.860000
  Q     18.210000    4.190000    7.790000
  Q     16.930000    4.890000    8.640000
  Q     17.730000    4.570000    8.450000
  Q     15.260000   12.340000    4.170000
  Q     14.160000   11.360000    4.380000
  Q     14.670000   11.940000    4.640000
  Q     11.730000    5.550000    7.450000
  Q     12.390000    5.980000    6.120000
  Q     12.330000    5.900000    6.980000
  Q      6.340000    2.720000   15.690000
  Q      7.300000    2.070000   16.460000
  Q      7.040000    2.730000   16.060000
  Q     15.310000   11.310000    1.300000
  Q     14.400000   12.620000    1.270000
  Q     14.710000   11.870000    0.980000
  Q     11.020000    3.880000   10.610000
  Q     10.300000    2.930000   11.580000
  Q     10.940000    3.180000   11.050000
  Q      2.610000   10.570000    8.290000
  Q      4.090000   11.160000    8.660000
  Q      3.440000   10.570000    8.580000
  Q      9.320000    5.040000    4.710000
  Q     10.200000    4.210000    5.710000
  Q      9.850000    4.910000    5.370000
  Q     16.920000    3.360000   16.420000
  Q     16.990000    4.100000   15.070000
  Q     17.100000    3.990000   15.910000
  Q     11.770000   11.030000    5.700000
  Q     12.680000    9.780000    5.820000
  Q     11.990000   10.220000    5.560000
  Q     14.880000    8.870000    2.100000
  Q     14.480000    8.740000    0.530000
  Q     14.810000    8.500000    1.310000
  Q     15.980000    2.230000    7.200000
  Q     15.240000    3.220000    6.370000
  Q     15.540000    2.480000    6.530000
  Q     11.620000   22.390000   11.920000
  Q     11.980000   21.030000   11.890000
  Q     11.420000   21.610000   11.810000
  Q     12.140000   19.700000    9.860000
  Q     13.630000   20.250000    9.670000
  Q     12.990000   19.720000    9.960000
  Q      6.360000   17.840000   13.060000
  Q      6.690000   19.440000   12.880000
  Q      6.740000   18.560000   12.750000
  Q      9.600000   11.860000   20.360000
  Q      9.640000   10.260000   20.730000
  Q      9.340000   11.080000   20.690000
  Q     21.170000   13.050000   13.460000
  Q     20.720000   13.360000   14.860000
  Q     20.870000   13.540000   14.070000
  Q      2.970000   16.780000    7.680000
  Q      4.230000   16.450000    8.490000
  Q      3.400000   16.570000    8.370000
  Q      8.740000   14.910000    2.160000
  Q      7.910000   13.610000    1.940000
  Q      8.360000   14.290000    1.690000
  Q      7.010000    2.250000   12.430000
  Q      5.800000    2.360000   13.410000
  Q      6.190000    2.350000   12.630000
  Q     20.420000    4.820000   15.580000
  Q     18.930000    4.030000   15.640000
  Q     19.840000    4.130000   15.490000
  Q      7.060000   13.300000    6.010000
  Q      6.830000   13.200000    4.520000
  Q      7.010000   12.910000    5.280000
  Q     13.640000   11.300000   16.570000
  Q     12.750000    9.980000   16.700000
  Q     13.300000   10.590000   16.920000
  Q      5.850000    9.350000   18.580000
  Q      6.400000    9.160000   19.930000
  Q      6.260000    9.570000   19.250000
  Q      1.880000   13.950000    7.360000
  Q      1.520000   14.420000    8.850000
  Q      1.800000   13.900000    8.230000
  Q     13.230000   15.160000   12.560000
  Q     13.960000   15.790000   13.700000
  Q     13.920000   15.370000   12.960000
  Q     15.680000    0.940000   12.050000
  Q     15.270000    2.160000   11.450000
  Q     15.110000    1.450000   11.820000
  Q     12.610000   13.750000   19.090000
  Q     13.890000   14.520000   18.780000
  Q     13.100000   14.440000   19.080000
  Q     20.040000   13.800000   17.450000
  Q     19.680000   12.440000   16.630000
  Q     20.150000   13.080000   16.940000
  Q     19.350000   10.930000   15.290000
  Q     18.480000   10.410000   16.350000
  Q     18.760000   11.000000   15.850000
  Q      1.810000   15.480000   12.890000
  Q      0.690000   14.900000   13.710000
  Q      1.350000   15.370000   13.570000
  Q      5.650000    6.130000    4.200000
  Q      6.720000    5.050000    4.190000
  Q      6.000000    5.390000    4.450000
  Q     16.170000   13.670000   11.300000
  Q     14.840000   13.870000   12.230000
  Q     15.420000   13.480000   11.720000
  Q      7.640000   10.830000   16.780000
  Q      7.780000   10.360000   18.260000
  Q      8.010000   10.450000   17.440000
  Q     14.420000    9.740000   18.060000
  Q     15.090000    8.440000   18.450000
  Q     15.020000    9.270000   18.450000
  Q      6.150000   16.830000    7.750000
  Q      6.560000   17.500000    9.060000
  Q      6.090000   16.940000    8.570000
  Q     10.290000   12.880000   18.570000
  Q      9.010000   12.120000   17.930000
  Q      9.550000   12.790000   18.120000
  Q     15.720000   13.040000   15.460000
  Q     17.120000   12.360000   15.820000
  Q     16.580000   13.010000   15.630000
  Q     14.360000   16.410000    5.160000
  Q     14.180000   16.960000    6.450000
  Q     14.330000   16.340000    5.960000
  Q     10.700000    4.860000    0.660000
  Q     12.160000    5.230000    1.210000
  Q     11.390000    4.870000    1.220000
  Q      8.530000    4.200000   20.970000
  Q      8.800000    5.660000   20.580000
  Q      8.880000    4.950000   21.030000
  Q     17.940000   14.870000   11.570000
  Q     18.190000   14.940000   10.000000
  Q     17.740000   14.940000   10.740000
  Q      3.400000   10.200000   13.340000
  Q      3.490000    9.050000   12.270000
  Q      3.590000    9.420000   13.040000

----------------------------
CARTESIAN COORDINATES (A.U.)
----------------------------
  NO LB      ZA    FRAG     MASS         X           Y           Z
   0 C     6.0000    0    12.011   18.311446   20.919268   17.158713
   1 H     1.0000    0     1.008   18.935056   21.901926   15.533549
   2 H     1.0000    0     1.008   16.459515   21.599570   17.650042
   3 C     6.0000    0    12.011   20.390145   21.240522   19.237412
   4 H     1.0000    0     1.008   22.109796   20.182275   18.576008
   5 H     1.0000    0     1.008   20.843679   23.243631   19.388590
   6 C     6.0000    0    12.011   19.823227   20.087789   21.901926
   7 H     1.0000    0     1.008   19.596460   17.952398   21.599570
   8 H     1.0000    0     1.008   17.933501   20.654707   22.449946
   9 C     6.0000    0    12.011   21.618467   20.616912   24.018419
  10 H     1.0000    0     1.008   20.730296   20.106686   25.756967
  11 H     1.0000    0     1.008   22.242077   22.638919   24.131803
  12 O     8.0000    0    15.999   23.848344   19.048439   23.697166
  13 H     1.0000    0     1.008   24.736515   19.256309   25.265638
  14 O     8.0000    0    15.999   17.914604   18.160268   16.591795
  15 H     1.0000    0     1.008   16.497309   18.198063   15.420165
  16 O     8.0000    0    15.999   13.039110   17.744528   14.229638
  17 H     1.0000    0     1.008   13.511542   18.368138   12.604473
  18 H     1.0000    0     1.008   12.566679   16.005980   13.870590
  19 O     8.0000    0    15.999   15.344576   15.722521   23.432604
  20 H     1.0000    0     1.008   16.837460   14.758761   23.300323
  21 H     1.0000    0     1.008   15.155604   16.308337   21.637364
  22 O     8.0000    0    15.999   23.262529   27.760077   15.968186
  23 H     1.0000    0     1.008   23.130248   26.267193   14.966631
  24 H     1.0000    0     1.008   22.166488   27.419926   17.385480
  25 O     8.0000    0    15.999   23.054659   15.287884   27.967947
  26 H     1.0000    0     1.008   22.072001   15.080015   26.399474
  27 H     1.0000    0     1.008   21.712953   15.193398   29.177372
  28 O     8.0000    0    15.999   22.903481   15.779213   16.535104
  29 H     1.0000    0     1.008   24.131803   16.629590   15.590241
  30 H     1.0000    0     1.008   21.183830   16.497309   16.383926
  31 O     8.0000    0    15.999   16.799665   13.511542   18.330343
  32 H     1.0000    0     1.008   15.590241   12.812343   17.120919
  33 H     1.0000    0     1.008   17.158713   15.231193   17.801220
  34 O     8.0000    0    15.999   26.834111   18.764981   14.531994
  35 H     1.0000    0     1.008   28.326995   18.878364   13.454850
  36 H     1.0000    0     1.008   26.853008   20.220070   15.760316
  37 O     8.0000    0    15.999   25.019974   14.720967   20.824782
  38 H     1.0000    0     1.008   24.207392   15.231193   19.218515
  39 H     1.0000    0     1.008   24.831001   16.232747   21.920823
  40 O     8.0000    0    15.999   13.965076   11.073795   26.909700
  41 H     1.0000    0     1.008   15.665830   11.111590   27.646693
  42 H     1.0000    0     1.008   13.643823   12.887932   26.871906
  43 O     8.0000    0    15.999    9.902165   13.606028   15.854802
  44 H     1.0000    0     1.008    9.410836   13.246980   17.650042
  45 H     1.0000    0     1.008    8.503768   12.717857   14.985528
  46 O     8.0000    0    15.999   19.709844   16.572898   32.200933
  47 H     1.0000    0     1.008   19.879919   15.835905   33.996173
  48 H     1.0000    0     1.008   18.387035   17.820117   32.257625
  49 O     8.0000    0    15.999   28.591556   18.292549   27.778974
  50 H     1.0000    0     1.008   27.760077   16.705179   28.175817
  51 H     1.0000    0     1.008   29.045091   18.349241   25.908145
  52 O     8.0000    0    15.999   15.174501   25.927043   21.656261
  53 H     1.0000    0     1.008   13.643823   25.038871   20.938166
  54 H     1.0000    0     1.008   15.287884   25.265638   23.394810
  55 O     8.0000    0    15.999   27.571104   12.056453   29.290755
  56 H     1.0000    0     1.008   28.667145   11.810788   27.778974
  57 H     1.0000    0     1.008   25.927043   12.547782   28.591556
  58 O     8.0000    0    15.999   18.141371   11.980864   29.612009
  59 H     1.0000    0     1.008   18.122474   13.568234   30.575769
  60 H     1.0000    0     1.008   18.897261   10.828131   30.783639
  61 O     8.0000    0    15.999   22.695611   24.131803   12.339912
  62 H     1.0000    0     1.008   24.188495   24.282981   11.224973
  63 H     1.0000    0     1.008   21.221624   24.793207   11.508432
  64 O     8.0000    0    15.999   26.890803   23.413707   28.440378
  65 H     1.0000    0     1.008   25.341227   24.075111   27.590002
  66 H     1.0000    0     1.008   27.552207   22.185385   27.344337
  67 O     8.0000    0    15.999   11.697405   16.988638   27.117570
  68 H     1.0000    0     1.008   13.246980   16.761871   26.078221
  69 H     1.0000    0     1.008   10.280110   17.517761   26.040426
  70 O     8.0000    0    15.999   20.049994   13.738309   23.678268
  71 H     1.0000    0     1.008   21.089344   13.624925   22.147590
  72 H     1.0000    0     1.008   19.842124   12.037555   24.226289
  73 O     8.0000    0    15.999   11.489535   17.290994   19.596460
  74 H     1.0000    0     1.008   11.073795   16.913049   17.876809
  75 H     1.0000    0     1.008   10.620261   16.138261   20.749193
  76 O     8.0000    0    15.999   13.851693   11.187179   13.719412
  77 H     1.0000    0     1.008   12.283220   12.037555   14.116254
  78 H     1.0000    0     1.008   13.795001   11.168281   11.905275
  79 O     8.0000    0    15.999   29.838776   20.031097   22.997967
  80 H     1.0000    0     1.008   30.594666   19.426385   21.410597
  81 H     1.0000    0     1.008   29.045091   21.637364   22.468844
  82 O     8.0000    0    15.999   13.492645    7.313240   16.913049
  83 H     1.0000    0     1.008   13.700514    8.692740   15.722521
  84 H     1.0000    0     1.008   13.322569    8.277000   18.557111
  85 O     8.0000    0    15.999   25.927043   32.635570   16.081569
  86 H     1.0000    0     1.008   26.286091   33.334769   17.687837
  87 H     1.0000    0     1.008   25.492406   30.840331   16.440617
  88 O     8.0000    0    15.999   17.990193   15.174501   11.224973
  89 H     1.0000    0     1.008   19.520871   16.062672   10.809233
  90 H     1.0000    0     1.008   18.500419   13.568234   12.056453
  91 O     8.0000    0    15.999   18.953953   27.665591   19.029542
  92 H     1.0000    0     1.008   17.423275   27.060878   19.936611
  93 H     1.0000    0     1.008   18.368138   28.704940   17.612248
  94 O     8.0000    0    15.999   14.664275   18.065782    8.730535
  95 H     1.0000    0     1.008   15.646932   18.727186    7.388829
  96 H     1.0000    0     1.008   15.817008   16.913049    9.694295
  97 O     8.0000    0    15.999   21.089344   10.828131   18.160268
  98 H     1.0000    0     1.008   22.053104   11.867480   17.139816
  99 H     1.0000    0     1.008   19.558665   11.716302   18.481522
 100 O     8.0000    0    15.999   13.662720   10.355699   21.278316
 101 H     1.0000    0     1.008   14.021768   10.053343   23.092453
 102 H     1.0000    0     1.008   14.966631   11.565124   20.824782
 103 O     8.0000    0    15.999   21.731851   26.078221   27.382132
 104 H     1.0000    0     1.008   20.616912   25.870351   28.837221
 105 H     1.0000    0     1.008   20.919268   27.117570   26.116015
 106 Q     0.6645    0     0.000   19.161823   17.461069    3.760555
 107 Q     0.6645    0     0.000   21.032652   15.306782    4.535343
 108 Q    -1.3290    0     0.000   20.201172   16.232747    3.514891
 109 Q     0.6645    0     0.000    7.577802   32.711159   23.489296
 110 Q     0.6645    0     0.000    6.859706   32.238728   26.248296
 111 Q    -1.3290    0     0.000    7.842363   32.200933   24.963282
 112 Q     0.6645    0     0.000   31.577324   19.766535   10.922617
 113 Q     0.6645    0     0.000   33.996173   20.220070   12.434398
 114 Q    -1.3290    0     0.000   32.408803   20.238967   12.150939
 115 Q     0.6645    0     0.000   20.314556   36.717379   33.826098
 116 Q     0.6645    0     0.000   20.900371   34.052865   32.597776
 117 Q    -1.3290    0     0.000   20.125583   35.470160   32.805646
 118 Q     0.6645    0     0.000   11.546227   30.405693   28.686043
 119 Q     0.6645    0     0.000   11.810788   31.860783   31.218276
 120 Q    -1.3290    0     0.000   12.245425   31.369454   29.744289
 121 Q     0.6645    0     0.000    8.522665   14.928836   31.634015
 122 Q     0.6645    0     0.000   10.658055   16.346131   30.556872
 123 Q    -1.3290    0     0.000    9.921062   15.722521   31.766296
 124 Q     0.6645    0     0.000   36.188255   26.323885   25.435714
 125 Q     0.6645    0     0.000   33.448153   26.248296   26.437269
 126 Q    -1.3290    0     0.000   34.600886   26.607344   25.397919
 127 Q     0.6645    0     0.000   23.942830   18.916159    7.124268
 128 Q     0.6645    0     0.000   24.717618   20.201172    4.762110
 129 Q    -1.3290    0     0.000   24.963282   19.294104    6.047124
 130 Q     0.6645    0     0.000   22.090899   12.037555   36.150461
 131 Q     0.6645    0     0.000   21.146035   14.305227   37.851214
 132 Q    -1.3290    0     0.000   21.051549   13.152494   36.698482
 133 Q     0.6645    0     0.000   12.339912   19.804330   28.648248
 134 Q     0.6645    0     0.000   10.695850   21.996412   29.914365
 135 Q    -1.3290    0     0.000   12.018658   21.240522   29.366344
 136 Q     0.6645    0     0.000   17.026432   26.871906   31.822988
 137 Q     0.6645    0     0.000   15.268987   28.723837   30.594666
 138 Q    -1.3290    0     0.000   16.667385   27.911255   30.745844
 139 Q     0.6645    0     0.000   36.433920   10.582466   33.315872
 140 Q     0.6645    0     0.000   33.750509   10.317905   32.559981
 141 Q    -1.3290    0     0.000   34.903242   10.752542   33.523742
 142 Q     0.6645    0     0.000   23.149145   21.448392   35.224495
 143 Q     0.6645    0     0.000   22.279871   21.731851   37.737831
 144 Q    -1.3290    0     0.000   22.431049   22.223179   36.301639
 145 Q     0.6645    0     0.000    0.963760   15.155604   14.758761
 146 Q     0.6645    0     0.000    1.681856   14.172946   12.018658
 147 Q    -1.3290    0     0.000    1.795240   15.098912   13.398158
 148 Q     0.6645    0     0.000    3.817247    9.543117   23.716063
 149 Q     0.6645    0     0.000    6.066021    7.804569   22.223179
 150 Q    -1.3290    0     0.000    5.366822    8.976199   23.186940
 151 Q     0.6645    0     0.000   30.273413   33.221385   32.144242
 152 Q     0.6645    0     0.000   27.627796   32.371009   31.218276
 153 Q    -1.3290    0     0.000   28.912810   32.446598   32.238728
 154 Q     0.6645    0     0.000    8.617151    3.873939   14.399713
 155 Q     0.6645    0     0.000   10.828131    5.688076   15.004426
 156 Q    -1.3290    0     0.000    9.316350    5.329028   14.607583
 157 Q     0.6645    0     0.000   35.281187   13.813898   26.116015
 158 Q     0.6645    0     0.000   34.827653   14.569788   28.875015
 159 Q    -1.3290    0     0.000   35.678029   14.437508   27.533310
 160 Q     0.6645    0     0.000   22.997967   17.820117   39.740941
 161 Q     0.6645    0     0.000   20.711398   16.875254   41.158235
 162 Q    -1.3290    0     0.000   21.467289   17.498864   39.929913
 163 Q     0.6645    0     0.000    9.769884   28.780529   25.265638
 164 Q     0.6645    0     0.000   12.018658   27.004186   26.475063
 165 Q    -1.3290    0     0.000   10.582466   27.760077   26.342782
 166 Q     0.6645    0     0.000   14.437508   21.731851   -0.056692
 167 Q     0.6645    0     0.000   11.735199   21.505083    1.511781
 168 Q    -1.3290    0     0.000   13.341467   21.316111    1.209425
 169 Q     0.6645    0     0.000   17.177611    2.947973   25.038871
 170 Q     0.6645    0     0.000   16.705179    1.606267   22.449946
 171 Q    -1.3290    0     0.000   16.516206    2.777897   23.564885
 172 Q     0.6645    0     0.000   15.741419    7.785672    5.045569
 173 Q     0.6645    0     0.000   15.779213   10.620261    5.140055
 174 Q    -1.3290    0     0.000   15.571343    9.165172    5.744767
 175 Q     0.6645    0     0.000   11.395049   15.835905    7.577802
 176 Q     0.6645    0     0.000    9.108480   15.835905    9.013994
 177 Q    -1.3290    0     0.000    9.996651   15.268987    7.880158
 178 Q     0.6645    0     0.000   30.953714   31.048200   20.881474
 179 Q     0.6645    0     0.000   28.648248   31.067098   22.714508
 180 Q    -1.3290    0     0.000   29.800981   31.671810   21.807440
 181 Q     0.6645    0     0.000    8.541562   21.070446   12.169836
 182 Q     0.6645    0     0.000   10.072240   22.336563   10.299007
 183 Q    -1.3290    0     0.000    8.730535   21.864131   10.884823
 184 Q     0.6645    0     0.000   28.893913    9.410836   24.188495
 185 Q     0.6645    0     0.000   31.407248   10.525775   24.660926
 186 Q    -1.3290    0     0.000   30.160029    9.656501   25.038871
 187 Q     0.6645    0     0.000   32.257625   10.771439    9.448631
 188 Q     0.6645    0     0.000   30.367899   10.695850   11.602918
 189 Q    -1.3290    0     0.000   31.010406   10.204521   10.185624
[...]
 356   Q   :    0.124693339   -0.140326190   -0.212879383
 357   Q   :   -0.060218331    0.230438550    0.026031301
 358   Q   :   -0.057317753   -0.099730248    0.190986529
 359   Q   :    0.197172136    0.107350048   -0.138460113
 360   Q   :   -0.035171898   -0.255904882    0.048800158
 361   Q   :   -0.162850254    0.154077666    0.087496600
 362   Q   :    0.200253331    0.199804922   -0.147998855
 363   Q   :   -0.107920267   -0.246536013   -0.122877991
 364   Q   :   -0.095169349    0.056761875    0.274094073
 365   Q   :    0.274916350    0.088496902    0.169606130
 366   Q   :    0.043354185   -0.076972446   -0.292302474
 367   Q   :   -0.318768070   -0.001902774    0.129361987
 368   Q   :   -0.191570557    0.198310568    0.068546303
 369   Q   :    0.188237090   -0.105453433    0.153569511
 370   Q   :   -0.004225121   -0.097590838   -0.233802867
 371   Q   :   -0.286788130    0.111707736    0.025036322
 372   Q   :    0.118367950   -0.114883684    0.223323736
 373   Q   :    0.163642126   -0.000906605   -0.241675020
 374   Q   :    0.253886708   -0.123837924   -0.024700671
 375   Q   :   -0.121082235    0.183012033   -0.188828020
 376   Q   :   -0.134847354   -0.051127387    0.211037083
 377   Q   :    0.222087034   -0.105499323   -0.001972237
 378   Q   :   -0.269447290   -0.105012654   -0.102363050
 379   Q   :    0.043697812    0.212701850    0.090109369
 380   Q   :    0.144824319    0.000298690   -0.242427102
 381   Q   :   -0.021919955    0.235537771    0.194312467
 382   Q   :   -0.128811156   -0.227614337    0.056615353
 383   Q   :   -0.112197356   -0.026802831    0.220997242
 384   Q   :    0.262513968    0.024532948   -0.054713355
 385   Q   :   -0.145060421   -0.000854625   -0.169147720
 386   Q   :    0.085716019    0.267304352    0.002747899
 387   Q   :   -0.018173307   -0.153479235   -0.217635313
 388   Q   :   -0.069625085   -0.112275289    0.218735497
 389   Q   :   -0.245190429   -0.121123335   -0.074027875
 390   Q   :    0.038069123    0.290108714   -0.070656535
 391   Q   :    0.212248114   -0.161205236    0.146208051
 392   Q   :   -0.136753228   -0.076534142    0.217802515
 393   Q   :   -0.121795744   -0.000632900   -0.285739544
 394   Q   :    0.258932797    0.071136377    0.065225098
 395   Q   :   -0.245332042    0.084570067   -0.095166077
 396   Q   :    0.055805763   -0.072967694    0.238208819
 397   Q   :    0.186909847   -0.002850253   -0.146189282
 398   Q   :    0.163462311    0.218160023   -0.122267245
 399   Q   :   -0.239764248    0.044075382    0.153680801
 400   Q   :    0.073016289   -0.262557874   -0.030600812
 401   Q   :   -0.023666963    0.151019899   -0.224417021
 402   Q   :    0.005963629    0.088268636    0.276401850
 403   Q   :    0.010584927   -0.229065785   -0.045873287
 404   Q   :    0.119253203    0.087203636   -0.190468609
 405   Q   :    0.015958386    0.059363605    0.300721412
 406   Q   :   -0.142162605   -0.151816134   -0.101556569
 407   Q   :    0.219225364    0.079103195    0.167535983
 408   Q   :   -0.165680522    0.180762382   -0.105730335
 409   Q   :   -0.035018265   -0.245154767   -0.056962380
 410   Q   :    0.014913208    0.198523942    0.171313708
 411   Q   :   -0.202504981   -0.154354932   -0.052690391
 412   Q   :    0.180155992   -0.043515557   -0.134154727
 413   Q   :    0.255356022   -0.025051766    0.096321429
 414   Q   :   -0.103709369    0.042761902   -0.236408785
 415   Q   :   -0.145177438   -0.021463651    0.144857000
 416   Q   :   -0.160971242    0.106424506   -0.173088106
 417   Q   :   -0.043621739   -0.137536644    0.206774095
 418   Q   :    0.215531811    0.040420772   -0.027528289
 419   Q   :    0.043231934    0.055915970    0.281216412
 420   Q   :   -0.191031868    0.171639024   -0.168837778
 421   Q   :    0.147780628   -0.223829786   -0.106573528
 422   Q   :    0.128060307   -0.257147595    0.044654682
 423   Q   :   -0.282498241    0.018025357   -0.117225617
 424   Q   :    0.145543793    0.235432888    0.070543189
 425   Q   :    0.173573330    0.175928613    0.104741119
 426   Q   :   -0.265841680   -0.049091056    0.079559157
 427   Q   :    0.082963155   -0.128947071   -0.176975539
 428   Q   :   -0.243780334    0.160190591    0.002584295
 429   Q   :    0.123851280   -0.111719831    0.189232089
 430   Q   :    0.113061444   -0.042718468   -0.182984852
 431   Q   :    0.169072815   -0.195482325    0.105849697
 432   Q   :   -0.008571758    0.282301148    0.110906119
 433   Q   :   -0.162357367   -0.092490756   -0.202841339
 434   Q   :   -0.048821999    0.019108102   -0.298490621
 435   Q   :    0.239471608    0.039416446    0.131634784
 436   Q   :   -0.197162147   -0.067093496    0.162094524
 437   Q   :    0.135796543   -0.238476073   -0.070100679
 438   Q   :   -0.230251821   -0.016228883    0.220024692
 439   Q   :    0.103280500    0.258783827   -0.149825744
 440   Q   :   -0.261296992    0.017052770    0.078041040
 441   Q   :    0.197972345   -0.135525789    0.080813020
 442   Q   :    0.060868415    0.118784062   -0.152024488
 443   Q   :   -0.180421473   -0.193345105    0.005477189
 444   Q   :    0.030945783    0.209381254   -0.189065906
 445   Q   :    0.141960385   -0.012340341    0.182849011
 446   Q   :    0.242566293    0.097238483   -0.013653783
 447   Q   :   -0.197788200    0.072572110   -0.148949070
 448   Q   :   -0.042413280   -0.158607544    0.168439901
 449   Q   :    0.241359267   -0.043114545    0.129801895
 450   Q   :   -0.178275894   -0.171554244   -0.093362863
 451   Q   :   -0.047662939    0.210901258   -0.040512036
 452   Q   :    0.182982406   -0.192193649   -0.092177994
 453   Q   :    0.010888528    0.100461195    0.273078295
 454   Q   :   -0.197652069    0.099763438   -0.178702843
 455   Q   :    0.263328586   -0.022776600    0.181747414
 456   Q   :   -0.167971228   -0.215903008   -0.029858382
 457   Q   :   -0.088012225    0.246030272   -0.140487548
 458   Q   :    0.212150001   -0.164231840   -0.064807987
 459   Q   :   -0.222477009    0.040691884   -0.165068702
 460   Q   :    0.000479612    0.122118292    0.229920554
 461   Q   :    0.057785481    0.262048613   -0.060694211
 462   Q   :   -0.194485605   -0.083934635    0.232634181
 463   Q   :    0.143668429   -0.177150147   -0.159757078
 464   Q   :   -0.143811790   -0.140557167    0.169801078
 465   Q   :    0.078054103    0.258022455    0.033100696
 466   Q   :    0.050900851   -0.122965123   -0.221699953
 467   Q   :    0.256614578    0.014027793   -0.107927360
 468   Q   :   -0.250194869    0.069177338   -0.155674232
 469   Q   :   -0.011911826   -0.079725184    0.277811715
 470   Q   :   -0.190529553    0.089858857   -0.103410010
 471   Q   :    0.052244934   -0.098637059    0.202570579
 472   Q   :    0.149107745    0.012474517   -0.108028947
 473   Q   :    0.253730521    0.109462663    0.008816523
 474   Q   :   -0.250917446    0.090046186    0.065411822
 475   Q   :    0.009781378   -0.194349122   -0.071017708
 476   Q   :    0.122929213   -0.189923671   -0.183487704
 477   Q   :   -0.275806195    0.081446682    0.012310861
 478   Q   :    0.140171821    0.110603864    0.169129929
 479   Q   :    0.225346059    0.014235888    0.142359586
 480   Q   :   -0.218679632   -0.175058078    0.030039588
 481   Q   :   -0.020323030    0.159852732   -0.169005508
 482   Q   :    0.281188427   -0.058788865   -0.105306221
 483   Q   :   -0.052814975    0.266260675    0.108129468
 484   Q   :   -0.242484120   -0.193906235   -0.007779855
 485   Q   :    0.040902004    0.094691812    0.277155445
 486   Q   :    0.023917238    0.166582458   -0.218691227
 487   Q   :   -0.061919194   -0.266052560   -0.053079789
 488   Q   :   -0.202579738   -0.157966410    0.017473602
 489   Q   :    0.280429170   -0.053161375    0.045404966
 490   Q   :   -0.086992540    0.212981373   -0.052224551
 491   Q   :   -0.019400972   -0.212938873   -0.140064381
 492   Q   :   -0.136501634    0.212188856   -0.009892000
 493   Q   :    0.158034438    0.003865717    0.150754882
 494   Q   :    0.079788690    0.246852249    0.082615223
 495   Q   :   -0.033143335   -0.089959763   -0.274735639
 496   Q   :   -0.038354084   -0.159837390    0.193363149
 497   Q   :   -0.052984322    0.284477062   -0.062335069
 498   Q   :   -0.171891103   -0.138743784    0.159702523
 499   Q   :    0.223936626   -0.140596650   -0.107559958
 500   Q   :    0.103250169   -0.254787680   -0.110995745
 501   Q   :   -0.111571262    0.190682400   -0.128031696
 502   Q   :    0.011331216    0.065145732    0.239489929
 503   Q   :    0.166371252    0.178273040   -0.241780752
 504   Q   :    0.148903890   -0.294756179    0.077258197
 505   Q   :   -0.315821271    0.127005814    0.161590246
 506   Q   :   -0.103953026   -0.270094449    0.038980345
 507   Q   :   -0.117960568    0.246427897    0.020180828
 508   Q   :    0.212034183    0.026890691   -0.054104247
 509   Q   :    0.110097494   -0.263328516    0.043988924
 510   Q   :   -0.226859492    0.054763272   -0.058744578
 511   Q   :    0.133669711    0.197396832    0.007176074
 512   Q   :    0.092482200    0.148452004   -0.235491593
 513   Q   :   -0.279140383   -0.177538910   -0.006921956
 514   Q   :    0.185632951    0.030003078    0.241336202
 515   Q   :   -0.144168083   -0.084241870   -0.242526196
 516   Q   :   -0.121539975    0.110704194    0.235249979
 517   Q   :    0.262617960   -0.022860218    0.010071347
 518   Q   :    0.136950130   -0.106777805   -0.187894970
 519   Q   :   -0.235757524    0.098503704    0.057978062
 520   Q   :    0.092476857    0.003045674    0.125936204
 521   Q   :    0.186994902    0.122162936   -0.164260313
 522   Q   :   -0.185679570   -0.208436500   -0.102984472
 523   Q   :    0.001474676    0.085462084    0.266381858
 524   Q   :   -0.218305674   -0.121911813    0.152284178
 525   Q   :    0.006621512    0.016183443   -0.274045744
 526   Q   :    0.205463602    0.112731996    0.120237203
 527   Q   :   -0.293704304   -0.035070289   -0.150518670
 528   Q   :    0.081225988   -0.262969916    0.142359442
 529   Q   :    0.207727005    0.295243883    0.001052834
 530   Q   :    0.172571191   -0.163088955    0.100896253
 531   Q   :   -0.099378508    0.235968590    0.101662177
 532   Q   :   -0.082231833   -0.078143699   -0.213296798
 533   Q   :    0.013286600    0.247848244   -0.148467728
 534   Q   :   -0.204127774   -0.060963914    0.165453957
 535   Q   :    0.184223075   -0.188463795   -0.011822384
 536   Q   :   -0.229380889    0.001716173   -0.081014709
 537   Q   :    0.186165795    0.171774844    0.014669503
 538   Q   :    0.054689358   -0.176762127    0.072859600
 539   Q   :   -0.160695630    0.042309406   -0.211395267
 540   Q   :    0.109554431   -0.230936927    0.099203161
 541   Q   :    0.049821406    0.185908712    0.124893882
 542   Q   :   -0.064728898   -0.237669622    0.175092140
 543   Q   :   -0.028176406    0.019367435   -0.268557653
 544   Q   :    0.081696208    0.210062347    0.096653695
 545   Q   :   -0.062243748    0.262227201    0.040364110
 546   Q   :    0.225935700   -0.135635950    0.078283131
 547   Q   :   -0.169221058   -0.126117516   -0.118388573
 548   Q   :    0.024506052    0.128654741    0.237721430
 549   Q   :   -0.105087732    0.085511073   -0.240407433
 550   Q   :    0.085930456   -0.214965666    0.001045498
 551   Q   :    0.159789315   -0.072701015    0.248995775
 552   Q   :   -0.112660308    0.289222693   -0.046537592
 553   Q   :   -0.048896248   -0.218458513   -0.203940572
 554   Q   :    0.107232457    0.300751869    0.049519649
 555   Q   :    0.228362247   -0.203612980    0.036657713
 556   Q   :   -0.340707796   -0.096081146   -0.091005458
 557   Q   :   -0.269177347    0.006702063   -0.040024921
 558   Q   :    0.191028818    0.173226002   -0.090905416
 559   Q   :    0.076806044   -0.180141992    0.121383862
 560   Q   :   -0.119233381   -0.220572807    0.099386579
 561   Q   :   -0.022915036    0.258005585    0.037005245
 562   Q   :    0.143194015   -0.040022465   -0.127347959
 563   Q   :    0.084318766    0.226052086   -0.109214248
 564   Q   :    0.089973810   -0.257242660    0.005213115
 565   Q   :   -0.183768537    0.031529790    0.102078241
 566   Q   :    0.103148642   -0.188641504   -0.204533210
 567   Q   :   -0.054814571   -0.089067224    0.274707013
 568   Q   :   -0.034067876    0.276346568   -0.072092939
 569   Q   :   -0.144740480    0.074666689   -0.253122531
 570   Q   :    0.253766991   -0.043202048    0.023780756
 571   Q   :   -0.118990817   -0.039059365    0.206784751
 572   Q   :    0.106836271    0.198487968    0.152425621
 573   Q   :   -0.148455479   -0.219752932    0.098470110
 574   Q   :    0.041150729    0.020601293   -0.261905765
 575   Q   :    0.259392829   -0.024905320   -0.048821112
 576   Q   :   -0.111170243    0.000895739    0.256967341
 577   Q   :   -0.148486384    0.022356167   -0.199099492
 578   Q   :    0.140147014    0.177427348    0.031851476
 579   Q   :   -0.227023683   -0.014966849    0.039173837
 580   Q   :    0.090996978   -0.180540316   -0.075982790
 581   Q   :    0.014889546    0.147892827    0.240519122
 582   Q   :   -0.062096971    0.118462620   -0.259308844
 583   Q   :    0.052064339   -0.272773706    0.013453454
 584   Q   :    0.094663736    0.217751926   -0.103551883
 585   Q   :   -0.184940048   -0.201302356   -0.073706041
 586   Q   :    0.085347723   -0.011167162    0.166971787
 587   Q   :   -0.151719068   -0.079343341   -0.229602639
 588   Q   :    0.053011995   -0.159537263    0.248795234
 589   Q   :    0.092863563    0.233805948   -0.018747888
 590   Q   :    0.013196462    0.026130005   -0.246282745
 591   Q   :   -0.099105056    0.178590209    0.206717417
 592   Q   :    0.077956299   -0.191841886    0.054949955
 593   Q   :   -0.247361384   -0.080637224   -0.134557489
 594   Q   :    0.003020184    0.133390383    0.234675727
 595   Q   :    0.243721515   -0.058113362   -0.092227805
 596   Q   :    0.253004816   -0.194043373    0.090219792
 597   Q   :    0.084905320    0.257266811   -0.127155402
 598   Q   :   -0.328892233   -0.074790375    0.031430549
 599   Q   :   -0.158729445   -0.230088490   -0.005693579
 600   Q   :    0.248431334    0.017123099   -0.096622315
 601   Q   :   -0.091343682    0.215461239    0.106755751
 602   Q   :   -0.041553369    0.204096259    0.149069792
 603   Q   :   -0.157033674   -0.201579764   -0.101539390
 604   Q   :    0.207506232    0.003560665   -0.036620963
 605   Q   :    0.220192186   -0.029950975   -0.201855663
 606   Q   :   -0.086216913   -0.218000405    0.178951047
 607   Q   :   -0.136232252    0.244769762    0.021085025
 608   Q   :    0.152448887    0.026428635   -0.252923394
 609   Q   :   -0.246548508   -0.184009594    0.035071759
 610   Q   :    0.080800634    0.163448973    0.212292037
 611   Q   :   -0.098084385    0.227333652   -0.087544501
 612   Q   :    0.246719751   -0.103350969   -0.087061161
 613   Q   :   -0.149228930   -0.132267891    0.178038118
 614   Q   :    0.213938666    0.049241744   -0.123472202
 615   Q   :   -0.180437311    0.110062528    0.153129443
 616   Q   :   -0.032857467   -0.161689524   -0.023850463
 617   Q   :   -0.112331516    0.132124798   -0.201851999
 618   Q   :   -0.067254300   -0.009139416    0.260571584
 619   Q   :    0.184367401   -0.124859109   -0.055002579
 620   Q   :   -0.191861954    0.124470552   -0.107241283
 621   Q   :    0.012738354   -0.290817761   -0.008984264
 622   Q   :    0.188547187    0.162681083    0.116112183
 623   Q   :    0.024482203   -0.026330236   -0.304209201
 624   Q   :    0.148052682    0.162891358    0.129244388
 625   Q   :   -0.159730700   -0.137724009    0.177873727
 626   Q   :    0.216266861    0.029636016    0.143947117
 627   Q   :   -0.154876495   -0.193037281   -0.046562208
 628   Q   :   -0.060137712    0.165801018   -0.093092306
 629   Q   :   -0.242800783    0.002984302   -0.043159385
 630   Q   :    0.153517732   -0.206305566    0.060495874
 631   Q   :    0.092796739    0.202386661   -0.013364591
 632   Q   :    0.005634176    0.039678374   -0.306454505
 633   Q   :   -0.056408227    0.255584514    0.174506777
 634   Q   :    0.043541917   -0.290286495    0.127488741
 635   Q   :   -0.202835035    0.007353554   -0.171502019
 636   Q   :    0.254602169    0.130841023   -0.007009503
 637   Q   :   -0.058990113   -0.136443369    0.168835106
 638   Q   :   -0.137343844   -0.277417251   -0.031449638
 639   Q   :   -0.031800642    0.233070700   -0.156931691
 640   Q   :    0.174935139    0.035983011    0.192783087
 641   Q   :    0.068118157   -0.019618521    0.255944247
 642   Q   :    0.149666753   -0.003640626   -0.232463569
 643   Q   :   -0.206959715    0.028280267   -0.038986126
 644   Q   :   -0.069201024    0.248834724    0.092600390
 645   Q   :   -0.029096665   -0.101125311   -0.240714723
 646   Q   :    0.097355093   -0.157147320    0.150697157

Difference to translation invariance:
           :   -0.0011817467   -0.0002624600   -0.0005720383

Difference to rotation invariance:
           :    0.0001242032   -0.0144931229    0.0099496402

Norm of the cartesian gradient     ...    6.3468291376
RMS gradient                       ...    0.1441716671
MAX gradient                       ...    0.3407077955

-------
TIMINGS
-------

Total SCF gradient time            ...      201.418 sec

One electron gradient       ....      25.025 sec  ( 12.4%)
RI-J Coulomb gradient       ....      10.582 sec  (  5.3%)
COSX gradient               ....     126.016 sec  ( 62.6%)
XC gradient                 ....      15.824 sec  (  7.9%)

Maximum memory used throughout the entire SCFGRAD-calculation: 804.6 MB

                            ***************************************
                            *     ORCA property calculations      *
                            ***************************************

                                    ---------------------
                                    Active property flags
                                    ---------------------
   (+) Dipole Moment


------------------------------------------------------------------------------
                       ORCA ELECTRIC PROPERTIES CALCULATION
------------------------------------------------------------------------------

Dipole Moment Calculation                       ... on
Quadrupole Moment Calculation                   ... off
Polarizability Calculation                      ... off
GBWName                                         ... final072.orca.gbw
Electron density                                ... final072.orca.scfp
The origin for moment calculation is the CENTER OF MASS  = (19.558808, 17.820164 20.664088)

-------------
DIPOLE MOMENT
-------------
                                X             Y             Z
Electronic contribution:      0.98391      -0.60571      -0.44132
Nuclear contribution   :    -17.08164       6.09031     -13.39022
                        -----------------------------------------
Total Dipole Moment    :    -16.09773       5.48460     -13.83155
                        -----------------------------------------
Magnitude (a.u.)       :     21.92098
Magnitude (Debye)      :     55.71870



--------------------
Rotational spectrum 
--------------------
 
Rotational constants in cm-1:     0.001845     0.001661     0.001216 
Rotational constants in MHz :    55.297577    49.787758    36.442416 

 Dipole components along the rotational axes: 
x,y,z [a.u.] :   -13.665107    14.372199     9.339921 
x,y,z [Debye]:   -34.733940    36.531226    23.740192 

 

Timings for individual modules:

Sum of individual times         ...      893.029 sec (=  14.884 min)
GTO integral calculation        ...       13.284 sec (=   0.221 min)   1.5 %
SCF iterations                  ...      674.498 sec (=  11.242 min)  75.5 %
SCF Gradient evaluation         ...      205.247 sec (=   3.421 min)  23.0 %
                             ****ORCA TERMINATED NORMALLY****
TOTAL RUN TIME: 0 days 0 hours 15 minutes 2 seconds 179 msec
