
                                 *****************
                                 * O   R   C   A *
                                 *****************

                                            #,                                       
                                            ###                                      
                                            ####                                     
                                            #####                                    
                                            ######                                   
                                           ########,                                 
                                     ,,################,,,,,                         
                               ,,#################################,,                 
                          ,,##########################################,,             
                       ,#########################################, ''#####,          
                    ,#############################################,,   '####,        
                  ,##################################################,,,,####,       
                ,###########''''           ''''###############################       
              ,#####''   ,,,,##########,,,,          '''####'''          '####       
            ,##' ,,,,###########################,,,                        '##       
           ' ,,###''''                  '''############,,,                           
         ,,##''                                '''############,,,,        ,,,,,,###''
      ,#''                                            '''#######################'''  
     '                                                          ''''####''''         
             ,#######,   #######,   ,#######,      ##                                
            ,#'     '#,  ##    ##  ,#'     '#,    #''#        ######   ,####,        
            ##       ##  ##   ,#'  ##            #'  '#       #        #'  '#        
            ##       ##  #######   ##           ,######,      #####,   #    #        
            '#,     ,#'  ##    ##  '#,     ,#' ,#      #,         ##   #,  ,#        
             '#######'   ##     ##  '#######'  #'      '#     #####' # '####'        



                  #######################################################
                  #                        -***-                        #
                  #          Department of theory and spectroscopy      #
                  #    Directorship and core code : Frank Neese         #
                  #        Max Planck Institute fuer Kohlenforschung    #
                  #                Kaiser Wilhelm Platz 1               #
                  #                 D-45470 Muelheim/Ruhr               #
                  #                      Germany                        #
                  #                                                     #
                  #                  All rights reserved                #
                  #                        -***-                        #
                  #######################################################


                         Program Version 5.0.3 -  RELEASE  -


 With contributions from (in alphabetic order):
   Daniel Aravena         : Magnetic Suceptibility
   Michael Atanasov       : Ab Initio Ligand Field Theory (pilot matlab implementation)
   Alexander A. Auer      : GIAO ZORA, VPT2 properties, NMR spectrum
   Ute Becker             : Parallelization
   Giovanni Bistoni       : ED, misc. LED, open-shell LED, HFLD
   Martin Brehm           : Molecular dynamics
   Dmytro Bykov           : SCF Hessian
   Vijay G. Chilkuri      : MRCI spin determinant printing, contributions to CSF-ICE
   Dipayan Datta          : RHF DLPNO-CCSD density
   Achintya Kumar Dutta   : EOM-CC, STEOM-CC
   Dmitry Ganyushin       : Spin-Orbit,Spin-Spin,Magnetic field MRCI
   Miquel Garcia          : C-PCM and meta-GGA Hessian, CC/C-PCM, Gaussian charge scheme
   Yang Guo               : DLPNO-NEVPT2, F12-NEVPT2, CIM, IAO-localization
   Andreas Hansen         : Spin unrestricted coupled pair/coupled cluster methods
   Benjamin Helmich-Paris : MC-RPA, TRAH-SCF, COSX integrals
   Lee Huntington         : MR-EOM, pCC
   Robert Izsak           : Overlap fitted RIJCOSX, COSX-SCS-MP3, EOM
   Marcus Kettner         : VPT2
   Christian Kollmar      : KDIIS, OOCD, Brueckner-CCSD(T), CCSD density, CASPT2, CASPT2-K
   Simone Kossmann        : Meta GGA functionals, TD-DFT gradient, OOMP2, MP2 Hessian
   Martin Krupicka        : Initial AUTO-CI
   Lucas Lang             : DCDCAS
   Marvin Lechner         : AUTO-CI (C++ implementation), FIC-MRCC
   Dagmar Lenk            : GEPOL surface, SMD
   Dimitrios Liakos       : Extrapolation schemes; Compound Job, initial MDCI parallelization
   Dimitrios Manganas     : Further ROCIS development; embedding schemes
   Dimitrios Pantazis     : SARC Basis sets
   Anastasios Papadopoulos: AUTO-CI, single reference methods and gradients
   Taras Petrenko         : DFT Hessian,TD-DFT gradient, ASA, ECA, R-Raman, ABS, FL, XAS/XES, NRVS
   Peter Pinski           : DLPNO-MP2, DLPNO-MP2 Gradient
   Christoph Reimann      : Effective Core Potentials
   Marius Retegan         : Local ZFS, SOC
   Christoph Riplinger    : Optimizer, TS searches, QM/MM, DLPNO-CCSD(T), (RO)-DLPNO pert. Triples
   Tobias Risthaus        : Range-separated hybrids, TD-DFT gradient, RPA, STAB
   Michael Roemelt        : Original ROCIS implementation
   Masaaki Saitow         : Open-shell DLPNO-CCSD energy and density
   Barbara Sandhoefer     : DKH picture change effects
   Avijit Sen             : IP-ROCIS
   Kantharuban Sivalingam : CASSCF convergence, NEVPT2, FIC-MRCI
   Bernardo de Souza      : ESD, SOC TD-DFT
   Georgi Stoychev        : AutoAux, RI-MP2 NMR, DLPNO-MP2 response
   Willem Van den Heuvel  : Paramagnetic NMR
   Boris Wezisla          : Elementary symmetry handling
   Frank Wennmohs         : Technical directorship


 We gratefully acknowledge several colleagues who have allowed us to
 interface, adapt or use parts of their codes:
   Stefan Grimme, W. Hujo, H. Kruse, P. Pracht,  : VdW corrections, initial TS optimization,
                  C. Bannwarth, S. Ehlert          DFT functionals, gCP, sTDA/sTD-DF
   Ed Valeev, F. Pavosevic, A. Kumar             : LibInt (2-el integral package), F12 methods
   Garnet Chan, S. Sharma, J. Yang, R. Olivares  : DMRG
   Ulf Ekstrom                                   : XCFun DFT Library
   Mihaly Kallay                                 : mrcc  (arbitrary order and MRCC methods)
   Jiri Pittner, Ondrej Demel                    : Mk-CCSD
   Frank Weinhold                                : gennbo (NPA and NBO analysis)
   Christopher J. Cramer and Donald G. Truhlar   : smd solvation model
   Lars Goerigk                                  : TD-DFT with DH, B97 family of functionals
   V. Asgeirsson, H. Jonsson                     : NEB implementation
   FAccTs GmbH                                   : IRC, NEB, NEB-TS, DLPNO-Multilevel, CI-OPT
                                                   MM, QMMM, 2- and 3-layer-ONIOM, Crystal-QMMM,
                                                   LR-CPCM, SF, NACMEs, symmetry and pop. for TD-DFT,
                                                   nearIR, NL-DFT gradient (VV10), updates on ESD,
                                                   ML-optimized integration grids
   S Lehtola, MJT Oliveira, MAL Marques          : LibXC Library
   Liviu Ungur et al                             : ANISO software


 Your calculation uses the libint2 library for the computation of 2-el integrals
 For citations please refer to: http://libint.valeyev.net

 Your ORCA version has been built with support for libXC version: 5.1.0
 For citations please refer to: https://tddft.org/programs/libxc/

 This ORCA versions uses:
   CBLAS   interface :  Fast vector & matrix operations
   LAPACKE interface :  Fast linear algebra routines
   SCALAPACK package :  Parallel linear algebra routines
   Shared memory     :  Shared parallel matrices
   BLAS/LAPACK       :  OpenBLAS 0.3.15  USE64BITINT DYNAMIC_ARCH NO_AFFINITY SkylakeX SINGLE_THREADED
        Core in use  :  SkylakeX
   Copyright (c) 2011-2014, The OpenBLAS Project


================================================================================

----- Orbital basis set information -----
Your calculation utilizes the basis: def2-SVP
   F. Weigend and R. Ahlrichs, Phys. Chem. Chem. Phys. 7, 3297 (2005).

The basis set includes element-specific modifications.

Your calculation utilizes the basis: aug-cc-pVTZ 
    H, B-Ne : Obtained from the ccRepo (grant-hill.group.shef.ac.uk/ccrepo) Feb. 2017
              R. A. Kendall, T. H. Dunning, Jr., R. J. Harrison, J. Chem. Phys. 96, 6796 (1992)
         He : Obtained from the ccRepo (grant-hill.group.shef.ac.uk/ccrepo) Feb. 2017
              D. E. Woon, T. H. Dunning, Jr., J. Chem. Phys. 100, 2975 (1994)
  Li-Be, Na : Obtained from the ccRepo (grant-hill.group.shef.ac.uk/ccrepo) Feb. 2017
              B. P. Prascher, D. E. Woon, K. A. Peterson, T. H. Dunning, Jr., A. K. Wilson, Theor. Chem. Acc. 128, 69 (2011)
         Mg : Obtained from the Peterson Research Group Website (tyr0.chem.wsu.edu/~kipeters) Feb. 2017
              B. P. Prascher, D. E. Woon, K. A. Peterson, T. H. Dunning, Jr., A. K. Wilson, Theor. Chem. Acc. 128, 69 (2011)
      Al-Ar : Obtained from the ccRepo (grant-hill.group.shef.ac.uk/ccrepo) Feb. 2017
              D. E. Woon, T. H. Dunning, Jr., J. Chem. Phys. 98, 1358 (1993)
      Sc-Zn : Obtained from the ccRepo (grant-hill.group.shef.ac.uk/ccrepo) Feb. 2017
              N. B. Balabanov, K. A. Peterson, J. Chem. Phys. 123, 064107 (2005)
              N. B. Balabanov, K. A. Peterson, J. Chem. Phys. 125, 074110 (2006)
      Ga-Kr : Obtained from the ccRepo (grant-hill.group.shef.ac.uk/ccrepo) Feb. 2017
              A. K. Wilson, D. E. Woon, K. A. Peterson, T. H. Dunning, Jr., J. Chem. Phys. 110, 7667 (1999)
     Ag, Au : Obtained from the Peterson Research Group Website (tyr0.chem.wsu.edu/~kipeters) Feb. 2017
              K. A. Peterson, C. Puzzarini, Theor. Chem. Acc. 114, 283 (2005)

Your calculation utilizes the basis: cc-pVTZ 
       H, B-Ne : Obtained from the ccRepo (grant-hill.group.shef.ac.uk/ccrepo) Feb. 2017
                 T. H. Dunning, Jr., J. Chem. Phys. 90, 1007 (1989)
            He : Obtained from the ccRepo (grant-hill.group.shef.ac.uk/ccrepo) Feb. 2017
                 D. E. Woon, T. H. Dunning, Jr., J. Chem. Phys. 100, 2975 (1994)
  Li-Be, Na-Mg : Obtained from the ccRepo (grant-hill.group.shef.ac.uk/ccrepo) Feb. 2017
                 B. P. Prascher, D. E. Woon, K. A. Peterson, T. H. Dunning, Jr., A. K. Wilson, Theor. Chem. Acc. 128, 69 (2011)
         Al-Ar : Obtained from the ccRepo (grant-hill.group.shef.ac.uk/ccrepo) Feb. 2017
                 D. E. Woon, T. H. Dunning, Jr., J. Chem. Phys. 98, 1358 (1993)
            Ca : Obtained from the Peterson Research Group Website (tyr0.chem.wsu.edu/~kipeters) Feb. 2017
                 J. Koput, K. A. Peterson, J. Phys. Chem. 106, 9595 (2002)
         Sc-Zn : Obtained from the ccRepo (grant-hill.group.shef.ac.uk/ccrepo) Feb. 2017
                 N. B. Balabanov, K. A. Peterson, J. Chem. Phys. 123, 064107 (2005)
                 N. B. Balabanov, K. A. Peterson, J. Chem. Phys. 125, 074110 (2006)
         Ga-Kr : Obtained from the ccRepo (grant-hill.group.shef.ac.uk/ccrepo) Feb. 2017
                 A. K. Wilson, D. E. Woon, K. A. Peterson, T. H. Dunning, Jr., J. Chem. Phys. 110, 7667 (1999)
             Y : Obtained from the ccRepo (grant-hill.group.shef.ac.uk/ccrepo) Feb. 2017
                 K. A. Peterson, D. Figgen, M. Dolg, H. Stoll, J. Chem. Phys. 126, 124101 (2007)
        Ag, Au : Obtained from the Peterson Research Group Website (tyr0.chem.wsu.edu/~kipeters) Feb. 2017
                 K. A. Peterson, C. Puzzarini, Theor. Chem. Acc. 114, 283 (2005)

----- AuxJ basis set information -----
Your calculation utilizes the auxiliary basis: def2/J
   F. Weigend, Phys. Chem. Chem. Phys. 8, 1057 (2006).

================================================================================
                                        WARNINGS
                       Please study these warnings very carefully!
================================================================================

WARNING: The globally-selected AuxJ basis set is optimized for use with ECPs
         Make sure a suitable alternative is explicitly given all heavy elements (Z>36)

INFO   : the flag for use of the SHARK integral package has been found!

================================================================================
                                       INPUT FILE
================================================================================
NAME = final046.orca.inp
|  1> ! NoMOPrint PrintBasis #MINIPRINT SMALLPRINT LARGEPRINT
|  2> ! ALLPOP XYZFILE
|  3> #! BP86 3-21G   TightSCF
|  4> ! ENGRAD
|  5> ! B3LYP NormalPNO PModel #DecontractAux
|  6> #! VerySlowConv 
|  7>  %maxcore 5000
|  8>  %scf  maxiter   500  end 
|  9> 
| 10> %pal
| 11>     nprocs 32
| 12> end
| 13> 
| 14> %basis
| 15>     NewGTO O    # New basis for oxygen
| 16>         "aug-cc-pVTZ"
| 17>     end
| 18>     NewGTO C    # New basis for carbon
| 19>         "aug-cc-pVTZ"
| 20>     end
| 21>     NewGTO H    # New basis for hydrogen
| 22>         "cc-pVTZ"
| 23>     end
| 24> end
| 25> 
| 26> * xyz 0   1
| 27>   C  10.1  9.76  11.63  #1
| 28>   H  9.6  10.17  10.74  #2
| 29>   H  9.55  9.2  12.38  #3
| 30>   C  10.89  10.83  12.24  #4
| 31>   H  10.24  11.39  12.94  #5
| 32>   H  11.73  10.48  12.85  #6
| 33>   C  11.45  11.69  11.13  #7
| 34>   H  11.57  11.08  10.25  #8
| 35>   H  12.35  12.25  11.54  #9
| 36>   C  10.34  12.77  10.64  #10
| 37>   H  10.01  13.37  11.51  #11
| 38>   H  9.49  12.29  10.21  #12
| 39>   O  10.89  13.7  9.69  #13
| 40>   H  11.29  13.22  8.9  #14
| 41>   O  11.07  8.76  11.26  #15
| 42>   H  10.7  8.15  10.59  #16
| 43>   O  9.71  7.63  14.49  #17
| 44>   H  9.42  8.3  15.15  #18
| 45>   H  10.67  7.56  14.67  #19
| 46>   O  13.84  8.45  10.11  #20
| 47>   H  13.04  8.67  10.52  #21
| 48>   H  13.92  7.46  10.15  #22
| 49>   O  14.85  13.43  13.29  #23
| 50>   H  14.26  14.04  12.78  #24
| 51>   H  15.16  13.84  14.06  #25
| 52>   O  7.21  12.84  9.17  #26
| 53>   H  6.55  13.05  8.44  #27
| 54>   H  8.03  13.17  8.72  #28
| 55>   O  9.91  10.85  7.75  #29
| 56>   H  10.2  11.16  6.92  #30
| 57>   H  10.58  10.11  7.99  #31
| 58>   O  15.97  14.94  15.38  #32
| 59>   H  15.53  15.69  15.79  #33
| 60>   H  16.57  15.28  14.71  #34
| 61>   O  12.91  9.83  15.57  #35
| 62>   H  12.9  10.7  15.19  #36
| 63>   H  12.73  9.25  14.82  #37
| 64>   O  13.62  15.14  11.64  #38
| 65>   H  13.8  14.99  10.66  #39
| 66>   H  12.82  15.6  11.63  #40
| 67>   O  11.97  8.86  7.86  #41
| 68>   H  12.77  9.09  8.36  #42
| 69>   H  11.48  8.21  8.36  #43
| 70>   O  12.71  12.55  15.18  #44
| 71>   H  13.16  12.94  14.42  #45
| 72>   H  12  13.1  15.36  #46
| 73>   O  10.2  6.9  9.3  #47
| 74>   H  9.28  6.84  9.15  #48
| 75>   H  10.39  6.11  9.82  #49
| 76>   O  12.31  13.35  7.15  #50
| 77>   H  11.62  13.71  6.6  #51
| 78>   H  12.73  14.03  7.65  #52
| 79>   O  10.11  4.93  13.73  #53
| 80>   H  9.72  5.54  14.36  #54
| 81>   H  10  4.1  14.28  #55
| 82>   O  12.5  7.94  13.71  #56
| 83>   H  12.13  8.37  12.95  #57
| 84>   H  13.32  7.49  13.52  #58
| 85>   O  10.25  11.23  4.93  #59
| 86>   H  11.12  11.66  4.72  #60
| 87>   H  9.63  11.49  4.23  #61
| 88>   O  7.53  10.93  13.12  #62
| 89>   H  7.63  11.79  13.5  #63
| 90>   H  6.93  11.09  12.31  #64
| 91>   O  8.26  15.19  8.22  #65
| 92>   H  8.77  15.22  7.42  #66
| 93>   H  7.4  15.55  7.92  #67
| 94>   O  5.24  12.64  7.06  #68
| 95>   H  4.99  11.72  7.07  #69
| 96>   H  4.42  13.01  7.41  #70
| 97>   O  15.55  11.28  11.52  #71
| 98>   H  14.93  11.87  12.02  #72
| 99>   H  15.19  11.3  10.63  #73
|100>   O  5.84  11.36  10.88  #74
|101>   H  6.36  11.98  10.39  #75
|102>   H  5.01  11.85  11.01  #76
|103>   O  9.58  15.72  13.46  #77
|104>   H  9.09  15.37  12.7  #78
|105>   H  10.34  16.14  13.1  #79
|106>   O  14.37  5.73  10.34  #80
|107>   H  14.66  5.81  11.25  #81
|108>   H  15.15  5.52  9.89  #82
|109>   O  10.53  9.26  17  #83
|110>   H  9.9  10  16.82  #84
|111>   H  11.25  9.46  16.39  #85
|112>   O  14.95  10.34  8.71  #86
|113>   H  15.89  10.45  8.65  #87
|114>   H  14.85  9.42  9.1  #88
|115>   O  8.1  15.64  10.96  #89
|116>   H  8.01  15.26  10.04  #90
|117>   H  7.93  16.63  11  #91
|118>   O  10.98  16.25  10.17  #92
|119>   H  10.86  15.3  10.07  #93
|120>   H  10.2  16.58  10.58  #94
|121>   O  7.68  7  12.29  #95
|122>   H  7.29  6.09  12.45  #96
|123>   H  8.37  7.23  12.9  #97
|124>   O  7.41  9.8  8.09  #98
|125>   H  6.88  10.45  8.55  #99
|126>   H  8.3  10.1  7.84  #100
|127>   O  10.59  8.39  5.03  #101
|128>   H  11.23  8.36  5.74  #102
|129>   H  10.31  9.36  5.13  #103
|130>   Q  0.6645  6.92$  13.92$  13.34$
|131>   Q  0.6645  8.01$  14.37$  14.38$
|132>   Q  -1.3290  7.47$  13.82$  14.01$
|133>   Q  0.6645  7.48$  21.16$  9.19$
|134>   Q  0.6645  8.38$  20$  9.17$
|135>   Q  -1.3290  7.65$  20.36$  9.21$
|136>   Q  0.6645  5.1$  6.87$  16.36$
|137>   Q  0.6645  4.59$  5.59$  16.91$
|138>   Q  -1.3290  5.04$  6.04$  16.38$
|139>   Q  0.6645  4.88$  8.74$  17.89$
|140>   Q  0.6645  5.14$  9.13$  16.5$
|141>   Q  -1.3290  4.67$  8.79$  17.08$
|142>   Q  0.6645  18.01$  9.33$  12.12$
|143>   Q  0.6645  19.16$  8.71$  11.47$
|144>   Q  -1.3290  18.71$  9.37$  11.72$
|145>   Q  0.6645  0.56$  13.09$  10.23$
|146>   Q  0.6645  1.89$  13.55$  10.63$
|147>   Q  -1.3290  1.25$  13.5$  10.1$
|148>   Q  0.6645  17.81$  10.89$  18.05$
|149>   Q  0.6645  16.21$  10.52$  18.19$
|150>   Q  -1.3290  17.01$  10.6$  17.81$
|151>   Q  0.6645  16.99$  5.64$  8.32$
|152>   Q  0.6645  16.13$  4.41$  7.68$
|153>   Q  -1.3290  16.54$  4.89$  8.29$
|154>   Q  0.6645  12.16$  8.38$  1.78$
|155>   Q  0.6645  11.64$  8.13$  3.27$
|156>   Q  -1.3290  11.91$  7.92$  2.46$
|157>   Q  0.6645  7.3$  2.46$  10.06$
|158>   Q  0.6645  8.48$  3.37$  10.65$
|159>   Q  -1.3290  8.05$  2.66$  10.44$
|160>   Q  0.6645  9.84$  18.9$  14.97$
|161>   Q  0.6645  9.34$  18.5$  16.37$
|162>   Q  -1.3290  9.8$  18.42$  15.66$
|163>   Q  0.6645  15.91$  9.78$  12.31$
|164>   Q  0.6645  16.36$  9.44$  13.7$
|165>   Q  -1.3290  16.38$  9.35$  12.87$
|166>   Q  0.6645  10.45$  -0.33$  6.79$
|167>   Q  0.6645  9.84$  0.88$  6.03$
|168>   Q  -1.3290  10.03$  0.43$  6.71$
|169>   Q  0.6645  18.86$  16.59$  7.2$
|170>   Q  0.6645  19.54$  16.68$  8.53$
|171>   Q  -1.3290  18.99$  16.92$  7.95$
|172>   Q  0.6645  21.12$  13.2$  15.2$
|173>   Q  0.6645  19.71$  12.62$  15.43$
|174>   Q  -1.3290  20.5$  12.57$  15.15$
|175>   Q  0.6645  2.9$  10.77$  5.8$
|176>   Q  0.6645  2.09$  11.89$  5.42$
|177>   Q  -1.3290  2.43$  11.16$  5.3$
|178>   Q  0.6645  10.1$  15.91$  2.1$
|179>   Q  0.6645  10.91$  16.59$  3.26$
|180>   Q  -1.3290  10.5$  15.96$  2.88$
|181>   Q  0.6645  18.99$  7.06$  4.69$
|182>   Q  0.6645  18.29$  7.24$  6.07$
|183>   Q  -1.3290  18.39$  7.32$  5.22$
|184>   Q  0.6645  2.62$  17.2$  8.54$
|185>   Q  0.6645  3.83$  16.96$  9.43$
|186>   Q  -1.3290  3.44$  17$  8.7$
|187>   Q  0.6645  11.37$  6.53$  18.68$
|188>   Q  0.6645  12.42$  5.33$  18.98$
|189>   Q  -1.3290  11.86$  5.79$  18.5$
|190>   Q  0.6645  4.2$  16.33$  5.89$
|191>   Q  0.6645  3.52$  15.74$  4.73$
|192>   Q  -1.3290  3.54$  16.12$  5.45$
|193>   Q  0.6645  0.96$  9.98$  10.66$
|194>   Q  0.6645  -0.04$  9.55$  9.61$
|195>   Q  -1.3290  0.21$  10.03$  10.23$
|196>   Q  0.6645  12.32$  4.29$  15.21$
|197>   Q  0.6645  12.25$  4.82$  16.75$
|198>   Q  -1.3290  12.46$  4.27$  16.09$
|199>   Q  0.6645  1.47$  8.86$  16.73$
|200>   Q  0.6645  2.67$  8.47$  17.48$
|201>   Q  -1.3290  1.84$  8.56$  17.39$
|202>   Q  0.6645  6.79$  2.3$  6.45$
|203>   Q  0.6645  7.9$  1.28$  6.2$
|204>   Q  -1.3290  7.2$  1.69$  6.05$
|205>   Q  0.6645  10.13$  4.76$  11.81$
|206>   Q  0.6645  11.1$  4.17$  10.89$
|207>   Q  -1.3290  10.43$  4.57$  11.05$
|208>   Q  0.6645  13.3$  10.66$  4.82$
|209>   Q  0.6645  13.47$  9.86$  3.6$
|210>   Q  -1.3290  13.02$  10.27$  4.14$
|211>   Q  0.6645  18.38$  19.32$  11.6$
|212>   Q  0.6645  18.58$  19.03$  10.16$
|213>   Q  -1.3290  18.41$  18.83$  10.94$
|214>   Q  0.6645  16.46$  3.06$  11.02$
|215>   Q  0.6645  16.91$  3.76$  9.74$
|216>   Q  -1.3290  17.02$  3.34$  10.45$
|217>   Q  0.6645  16.36$  17.53$  11.39$
|218>   Q  0.6645  15.41$  16.31$  11.51$
|219>   Q  -1.3290  16.14$  16.7$  11.42$
|220>   Q  0.6645  6.47$  1.41$  14.15$
|221>   Q  0.6645  5.92$  0.2$  15.01$
|222>   Q  -1.3290  5.94$  0.78$  14.37$
|223>   Q  0.6645  11.16$  16.52$  18.42$
|224>   Q  0.6645  11.15$  17.24$  19.78$
|225>   Q  -1.3290  10.79$  16.76$  19.16$
|226>   Q  0.6645  9.25$  20.34$  13.2$
|227>   Q  0.6645  10.02$  21.38$  13.92$
|228>   Q  -1.3290  9.66$  20.66$  13.88$
|229>   Q  0.6645  14.08$  19.61$  6.07$
|230>   Q  0.6645  15.53$  19.34$  5.8$
|231>   Q  -1.3290  14.76$  19.48$  5.6$
|232>   Q  0.6645  12.13$  20.32$  7.59$
|233>   Q  0.6645  11.76$  19.72$  6.29$
|234>   Q  -1.3290  11.99$  20.36$  6.8$
|235>   Q  0.6645  8.51$  1.53$  17.6$
|236>   Q  0.6645  8.41$  2.86$  16.72$
|237>   Q  -1.3290  8.78$  2.25$  17.23$
|238>   Q  0.6645  17.27$  17.42$  8.5$
|239>   Q  0.6645  16.32$  16.55$  9.34$
|240>   Q  -1.3290  16.52$  17.13$  8.76$
|241>   Q  0.6645  5.29$  15.68$  12.25$
|242>   Q  0.6645  6.6$  15.19$  11.68$
|243>   Q  -1.3290  5.89$  15.11$  12.11$
|244>   Q  0.6645  12.26$  2.7$  2.58$
|245>   Q  0.6645  11.79$  3.92$  3.26$
|246>   Q  -1.3290  11.69$  3.15$  2.94$
|247>   Q  0.6645  12.9$  20.13$  14.27$
|248>   Q  0.6645  13.6$  19.46$  13.13$
|249>   Q  -1.3290  13.47$  19.65$  13.92$
|250>   Q  0.6645  3.71$  4.25$  5.63$
|251>   Q  0.6645  3.15$  4.84$  6.99$
|252>   Q  -1.3290  3.11$  4.4$  6.25$
|253>   Q  0.6645  3.83$  17.91$  11.6$
|254>   Q  0.6645  3.34$  16.5$  11.57$
|255>   Q  -1.3290  3.85$  17.12$  11.33$
|256>   Q  0.6645  1.61$  15.28$  13.02$
|257>   Q  0.6645  1.53$  16.77$  13.19$
|258>   Q  -1.3290  1.92$  16.06$  12.99$
|259>   Q  0.6645  7.34$  21.09$  16.54$
|260>   Q  0.6645  7.66$  21.12$  15.02$
|261>   Q  -1.3290  7.24$  20.9$  15.73$
|262>   Q  0.6645  9.93$  14.71$  5.1$
|263>   Q  0.6645  9.31$  13.48$  5.82$
|264>   Q  -1.3290  9.74$  14.19$  5.76$
|265>   Q  0.6645  10.5$  13.97$  17.77$
|266>   Q  0.6645  11.02$  14.73$  16.52$
|267>   Q  -1.3290  10.7$  14.08$  16.96$
|268>   Q  0.6645  6.14$  4.21$  19.34$
|269>   Q  0.6645  7.47$  4.76$  19.77$
|270>   Q  -1.3290  6.68$  4.69$  19.79$
|271>   Q  0.6645  10.39$  18.44$  8.8$
|272>   Q  0.6645  9.79$  17.12$  8.76$
|273>   Q  -1.3290  9.77$  17.95$  8.66$
|274>   Q  0.6645  6.26$  13.48$  5.54$
|275>   Q  0.6645  5.47$  13.75$  4.15$
|276>   Q  -1.3290  6.14$  13.71$  4.71$
|277>   Q  0.6645  17.28$  2.92$  5.85$
|278>   Q  0.6645  15.78$  3.31$  5.4$
|279>   Q  -1.3290  16.44$  3.11$  5.94$
|280>   Q  0.6645  8.9$  15.93$  0.14$
|281>   Q  0.6645  8.9$  17.26$  0.85$
|282>   Q  -1.3290  9.17$  16.5$  0.68$
|283>   Q  0.6645  5.15$  5.03$  8.01$
|284>   Q  0.6645  4.31$  5.07$  9.34$
|285>   Q  -1.3290  4.62$  5.33$  8.59$
|286>   Q  0.6645  5.3$  9.33$  11.89$
|287>   Q  0.6645  6.14$  8.37$  12.62$
|288>   Q  -1.3290  5.52$  8.85$  12.5$
|289>   Q  0.6645  3.51$  13.31$  15.8$
|290>   Q  0.6645  2.46$  12.59$  16.34$
|291>   Q  -1.3290  2.89$  12.83$  15.71$
|292>   Q  0.6645  14.92$  12.69$  2.84$
|293>   Q  0.6645  15.08$  11.99$  4.36$
|294>   Q  -1.3290  14.87$  12.59$  3.71$
|295>   Q  0.6645  14$  0.97$  14.73$
|296>   Q  0.6645  13.33$  1.02$  13.39$
|297>   Q  -1.3290  13.32$  1$  14.23$
|298>   Q  0.6645  7.62$  8.67$  3.01$
|299>   Q  0.6645  9.03$  8.39$  3.6$
|300>   Q  -1.3290  8.23$  8.17$  3.35$
|301>   Q  0.6645  13.84$  13.22$  0.31$
|302>   Q  0.6645  15.13$  12.21$  0.31$
|303>   Q  -1.3290  14.5$  12.71$  0.63$
|304>   Q  0.6645  12.24$  5.09$  13.2$
|305>   Q  0.6645  13.72$  5.32$  13.64$
|306>   Q  -1.3290  13.06$  4.89$  13.31$
|307>   Q  0.6645  14.67$  3.17$  13.04$
|308>   Q  0.6645  16.02$  3.45$  13.59$
|309>   Q  -1.3290  15.49$  3.1$  13.06$
|310>   Q  0.6645  7.62$  12.89$  0.09$
|311>   Q  0.6645  7.3$  13.82$  1.25$
|312>   Q  -1.3290  7.11$  13.4$  0.54$
|313>   Q  0.6645  19.95$  10.12$  12.83$
|314>   Q  0.6645  20.41$  10.98$  14$
|315>   Q  -1.3290  20.37$  10.29$  13.51$
|316>   Q  0.6645  7.53$  13.23$  19.63$
|317>   Q  0.6645  7.36$  14.2$  18.66$
|318>   Q  -1.3290  7.14$  13.54$  19.04$
|319>   Q  0.6645  12.69$  15.39$  21.12$
|320>   Q  0.6645  11.92$  14.32$  22.08$
|321>   Q  -1.3290  12.52$  14.63$  21.53$
|322>   Q  0.6645  10.02$  1.92$  15.61$
|323>   Q  0.6645  11.2$  1.77$  14.78$
|324>   Q  -1.3290  10.37$  1.82$  14.88$
|325>   Q  0.6645  7.01$  11.05$  15.96$
|326>   Q  0.6645  6.54$  10.47$  14.52$
|327>   Q  -1.3290  6.5$  10.65$  15.39$
|328>   Q  0.6645  8.31$  4.17$  3.76$
|329>   Q  0.6645  7.8$  2.84$  3.41$
|330>   Q  -1.3290  7.83$  3.67$  3.33$
|331>   Q  0.6645  18.58$  4.31$  11.48$
|332>   Q  0.6645  18.9$  4.97$  12.85$
|333>   Q  -1.3290  19.06$  4.71$  12.05$
|334>   Q  0.6645  17.8$  6.53$  14.81$
|335>   Q  0.6645  17.44$  4.95$  14.9$
|336>   Q  -1.3290  17.48$  5.75$  14.56$
|337>   Q  0.6645  14.06$  12.93$  18.12$
|338>   Q  0.6645  12.77$  12.58$  17.5$
|339>   Q  -1.3290  13.31$  12.51$  18.09$
|340>   Q  0.6645  11.69$  1.54$  7.6$
|341>   Q  0.6645  12.09$  2.95$  7.22$
|342>   Q  -1.3290  12.21$  2.16$  7.54$
|343>   Q  0.6645  4.71$  11.52$  2.63$
|344>   Q  0.6645  3.99$  11.52$  3.93$
|345>   Q  -1.3290  4.28$  11.88$  3.24$
|346>   Q  0.6645  12.63$  2.53$  19.15$
|347>   Q  0.6645  12.31$  2.72$  17.61$
|348>   Q  -1.3290  12.22$  2.43$  18.43$
|349>   Q  0.6645  6.05$  18.58$  3.79$
|350>   Q  0.6645  6.07$  17.12$  3.5$
|351>   Q  -1.3290  5.68$  17.87$  3.54$
|352>   Q  0.6645  18.08$  6.99$  18.05$
|353>   Q  0.6645  17.04$  8.07$  17.5$
|354>   Q  -1.3290  17.38$  7.48$  18.06$
|355>   Q  0.6645  18.77$  13.9$  12.41$
|356>   Q  0.6645  20.1$  13.62$  13.16$
|357>   Q  -1.3290  19.52$  14.12$  12.83$
|358>   Q  0.6645  15.63$  0.87$  12.42$
|359>   Q  0.6645  15.4$  -0.62$  12.28$
|360>   Q  -1.3290  15.82$  0.09$  12.3$
|361>   Q  0.6645  7.06$  18.72$  12.31$
|362>   Q  0.6645  7.29$  18.69$  10.69$
|363>   Q  -1.3290  7.39$  18.46$  11.52$
|364>   Q  0.6645  3.66$  9.33$  2.88$
|365>   Q  0.6645  3.67$  9.26$  4.49$
|366>   Q  -1.3290  3.98$  9.15$  3.69$
|367>   Q  0.6645  5.5$  18.04$  14.74$
|368>   Q  0.6645  6.47$  19.3$  14.7$
|369>   Q  -1.3290  6.03$  18.61$  14.42$
|370>   Q  0.6645  15.35$  12.33$  6.98$
|371>   Q  0.6645  15.91$  13.64$  6.47$
|372>   Q  -1.3290  15.83$  12.99$  7$
|373>   Q  0.6645  3.88$  5.97$  19.14$
|374>   Q  0.6645  5.35$  6.34$  19.27$
|375>   Q  -1.3290  4.53$  6.49$  19.16$
|376>   Q  0.6645  13.04$  4.23$  10.18$
|377>   Q  0.6645  12.54$  3.02$  9.44$
|378>   Q  -1.3290  12.68$  3.48$  10.11$
|379>   Q  0.6645  8.55$  16.54$  14.77$
|380>   Q  0.6645  7.14$  17.07$  14.82$
|381>   Q  -1.3290  7.75$  16.51$  15.04$
|382>   Q  0.6645  7.41$  8.64$  20.49$
|383>   Q  0.6645  7.47$  7.49$  21.58$
|384>   Q  -1.3290  7.77$  8.14$  21.06$
|385>   Q  0.6645  0.84$  6.57$  12.96$
|386>   Q  0.6645  0.78$  7.97$  13.78$
|387>   Q  -1.3290  0.8$  7.43$  13.08$
|388>   Q  0.6645  8.4$  15.95$  3.32$
|389>   Q  0.6645  7.27$  15.17$  4.2$
|390>   Q  -1.3290  7.72$  15.86$  3.82$
|391>   Q  0.6645  18.64$  13.77$  17.03$
|392>   Q  0.6645  17.41$  13.94$  16$
|393>   Q  -1.3290  18.12$  13.59$  16.33$
|394>   Q  0.6645  2.95$  14.76$  7.6$
|395>   Q  0.6645  2.23$  13.71$  8.44$
|396>   Q  -1.3290  2.6$  14.03$  7.73$
|397>   Q  0.6645  11.06$  16.92$  16.13$
|398>   Q  0.6645  12.5$  16.54$  16.37$
|399>   Q  -1.3290  11.67$  16.47$  16.43$
|400>   Q  0.6645  6.01$  17.07$  6.8$
|401>   Q  0.6645  6.96$  16.34$  5.91$
|402>   Q  -1.3290  6.38$  16.37$  6.49$
|403>   Q  0.6645  18.9$  7.11$  8.38$
|404>   Q  0.6645  17.81$  8.07$  8.66$
|405>   Q  -1.3290  18.13$  7.43$  8.26$
|406>   Q  0.6645  15.93$  14.13$  8.73$
|407>   Q  0.6645  16.4$  14.45$  10.15$
|408>   Q  -1.3290  15.88$  14.46$  9.5$
|409>   Q  0.6645  12.86$  1.78$  11.4$
|410>   Q  0.6645  13.84$  0.68$  10.95$
|411>   Q  -1.3290  13.34$  1.11$  11.48$
|412>   Q  0.6645  21.34$  11.6$  11.19$
|413>   Q  0.6645  20.58$  12.84$  10.95$
|414>   Q  -1.3290  21.16$  12.39$  11.32$
|415>   Q  0.6645  0.09$  9.82$  14.66$
|416>   Q  0.6645  1.66$  10.05$  14.72$
|417>   Q  -1.3290  0.91$  9.68$  14.9$
|418>   Q  0.6645  4.08$  9.1$  7.3$
|419>   Q  0.6645  5.05$  9.4$  6.1$
|420>   Q  -1.3290  4.46$  9.57$  6.69$
|421>   Q  0.6645  9.39$  1.15$  9.98$
|422>   Q  0.6645  9.82$  0.59$  8.69$
|423>   Q  -1.3290  9.71$  0.57$  9.52$
|424>   Q  0.6645  13.8$  7.8$  20.63$
|425>   Q  0.6645  15.28$  7.36$  20.9$
|426>   Q  -1.3290  14.55$  7.42$  20.42$
|427>   Q  0.6645  5.18$  14.9$  15.58$
|428>   Q  0.6645  6.02$  13.79$  15.75$
|429>   Q  -1.3290  5.36$  14.2$  15.91$
|430>   Q  0.6645  14.25$  15.72$  6.3$
|431>   Q  0.6645  14.7$  16.17$  7.78$
|432>   Q  -1.3290  14.16$  15.97$  7.12$
|433>   Q  0.6645  5.07$  2.57$  9.1$
|434>   Q  0.6645  5.57$  1.55$  8$
|435>   Q  -1.3290  5.63$  2.21$  8.55$
|436>   Q  0.6645  10.9$  10.77$  19.6$
|437>   Q  0.6645  12.27$  11.54$  19.61$
|438>   Q  -1.3290  11.58$  11.15$  19.99$
|439>   Q  0.6645  1.98$  14.28$  4.22$
|440>   Q  0.6645  2.07$  14.15$  5.72$
|441>   Q  -1.3290  1.8$  13.93$  4.96$
|442>   Q  0.6645  7.05$  6.22$  7.99$
|443>   Q  0.6645  6.67$  6.56$  6.59$
|444>   Q  -1.3290  6.93$  6.05$  7.18$
|445>   Q  0.6645  14.83$  17.59$  3.28$
|446>   Q  0.6645  15.36$  18.03$  4.63$
|447>   Q  -1.3290  15.37$  17.58$  3.92$
|448>   Q  0.6645  12.29$  6.26$  3.27$
|449>   Q  0.6645  12.26$  6.06$  4.78$
|450>   Q  -1.3290  12.41$  5.82$  3.97$
|451>   Q  0.6645  6.26$  16.61$  18.4$
|452>   Q  0.6645  5.38$  15.57$  17.85$
|453>   Q  -1.3290  5.55$  16.21$  18.33$
|454>   Q  0.6645  3.55$  2.96$  11.08$
|455>   Q  0.6645  4.79$  3.76$  11$
|456>   Q  -1.3290  4.07$  3.48$  10.73$
|457>   Q  0.6645  13.92$  10.71$  7.09$
|458>   Q  0.6645  13.4$  12.04$  6.42$
|459>   Q  -1.3290  13.86$  11.32$  6.47$
|460>   Q  0.6645  18.34$  17.5$  15.18$
|461>   Q  0.6645  17.95$  17.25$  16.59$
|462>   Q  -1.3290  18.24$  17.72$  15.97$
|463>   Q  0.6645  15.98$  6.24$  13.38$
|464>   Q  0.6645  15.55$  7.51$  12.79$
|465>   Q  -1.3290  15.43$  6.73$  13.04$
|466>   Q  0.6645  19.58$  11.26$  6.6$
|467>   Q  0.6645  20.51$  10.56$  7.6$
|468>   Q  -1.3290  20.01$  11.16$  7.33$
|469>   Q  0.6645  13.38$  17.22$  1.13$
|470>   Q  0.6645  13.31$  18.46$  1.87$
|471>   Q  -1.3290  13.42$  17.65$  1.82$
|472>   Q  0.6645  16.87$  9.81$  3.38$
|473>   Q  0.6645  17.92$  9.17$  4.3$
|474>   Q  -1.3290  17.62$  9.78$  3.78$
|475>   Q  0.6645  9.54$  6.23$  5.14$
|476>   Q  0.6645  8.64$  5.46$  6.23$
|477>   Q  -1.3290  9.36$  5.69$  5.81$
|478>   Q  0.6645  19.15$  16.96$  4.96$
|479>   Q  0.6645  17.79$  16.02$  5$
|480>   Q  -1.3290  18.35$  16.7$  5.19$
|481>   Q  0.6645  5.67$  9.41$  2.69$
|482>   Q  0.6645  5.86$  9.9$  1.16$
|483>   Q  -1.3290  6.09$  9.63$  1.96$
|484>   Q  0.6645  9.48$  18.4$  18.56$
|485>   Q  0.6645  9.18$  19.88$  18.37$
|486>   Q  -1.3290  9.04$  19.04$  18.27$
|487>   Q  0.6645  7.96$  11.41$  2.53$
|488>   Q  0.6645  7.53$  12.04$  3.85$
|489>   Q  -1.3290  8.07$  11.84$  3.25$
|490>   Q  0.6645  17.39$  16.18$  12.96$
|491>   Q  0.6645  18.69$  15.71$  13.54$
|492>   Q  -1.3290  17.93$  16.06$  13.57$
|493>   Q  0.6645  18.93$  16.8$  10.83$
|494>   Q  0.6645  19.39$  15.29$  10.99$
|495>   Q  -1.3290  19.41$  16.09$  10.68$
|496>   Q  0.6645  4.19$  7.39$  8.92$
|497>   Q  0.6645  3.2$  8.26$  9.68$
|498>   Q  -1.3290  3.65$  8.01$  8.98$
|499>   Q  0.6645  16.2$  13.47$  19.23$
|500>   Q  0.6645  16.51$  12.98$  17.81$
|501>   Q  -1.3290  16.03$  13.34$  18.39$
|502>   Q  0.6645  9.07$  12.21$  16.5$
|503>   Q  0.6645  8.32$  11.75$  17.78$
|504>   Q  -1.3290  8.71$  11.67$  17.03$
|505>   Q  0.6645  9.67$  7.62$  20.16$
|506>   Q  0.6645  10.13$  8.22$  18.69$
|507>   Q  -1.3290  10.2$  7.75$  19.44$
|508>   Q  0.6645  9.38$  3.59$  18.82$
|509>   Q  0.6645  10.37$  4.64$  19.22$
|510>   Q  -1.3290  9.63$  4.22$  19.28$
|511>   Q  0.6645  7.08$  8.67$  6.6$
|512>   Q  0.6645  7.38$  8.36$  5.17$
|513>   Q  -1.3290  6.87$  8.45$  5.84$
|514>   Q  0.6645  17.87$  10.2$  9.98$
|515>   Q  0.6645  18.54$  10.84$  8.74$
|516>   Q  -1.3290  17.91$  10.54$  9.19$
|517>   Q  0.6645  10.54$  13.14$  2.01$
|518>   Q  0.6645  11.14$  12.26$  1$
|519>   Q  -1.3290  10.77$  12.96$  1.25$
|520>   Q  0.6645  2.21$  6.71$  8.24$
|521>   Q  0.6645  0.85$  5.97$  8.18$
|522>   Q  -1.3290  1.68$  6.05$  8.29$
|523>   Q  0.6645  3.48$  16.67$  14.79$
|524>   Q  0.6645  3.29$  17.15$  16.22$
|525>   Q  -1.3290  3.74$  17.04$  15.48$
|526>   Q  0.6645  16.22$  10.05$  16.17$
|527>   Q  0.6645  14.77$  9.61$  15.6$
|528>   Q  -1.3290  15.64$  9.62$  15.64$
|529>   Q  0.6645  12.19$  17.57$  9.3$
|530>   Q  0.6645  13.27$  18.71$  8.86$
|531>   Q  -1.3290  12.48$  18.31$  8.89$
|532>   Q  0.6645  4.96$  19.28$  13.22$
|533>   Q  0.6645  3.4$  19.37$  13.01$
|534>   Q  -1.3290  4.22$  19.45$  12.78$
|535>   Q  0.6645  11.7$  8.08$  20.91$
|536>   Q  0.6645  12.14$  9.42$  21.41$
|537>   Q  -1.3290  12.21$  8.59$  21.33$
|538>   Q  0.6645  3.95$  6.91$  13.26$
|539>   Q  0.6645  4.27$  6.21$  14.57$
|540>   Q  -1.3290  4.11$  6.24$  13.76$
|541>   Q  0.6645  15.69$  15.58$  4.5$
|542>   Q  0.6645  15.9$  14.04$  4.17$
|543>   Q  -1.3290  15.99$  14.79$  4.65$
|544>   Q  0.6645  14.82$  0.56$  7.97$
|545>   Q  0.6645  13.65$  1.19$  8.63$
|546>   Q  -1.3290  14.37$  0.78$  8.63$
|547>   Q  0.6645  18.03$  19.78$  6.06$
|548>   Q  0.6645  17.5$  18.39$  6.29$
|549>   Q  -1.3290  17.5$  19.22$  6.4$
|550>   Q  0.6645  6.78$  3.99$  12.65$
|551>   Q  0.6645  5.53$  4.88$  13.02$
|552>   Q  -1.3290  6.16$  4.56$  12.5$
|553>   Q  0.6645  7.34$  20.78$  11.53$
|554>   Q  0.6645  6.7$  21.55$  12.7$
|555>   Q  -1.3290  7.24$  21$  12.34$
|556>   Q  0.6645  15.15$  20.23$  8.58$
|557>   Q  0.6645  15.44$  18.73$  8.9$
|558>   Q  -1.3290  14.94$  19.44$  8.86$
|559>   Q  0.6645  20.03$  14.27$  9.28$
|560>   Q  0.6645  20.11$  12.78$  8.78$
|561>   Q  -1.3290  19.85$  13.44$  9.29$
|562>   Q  0.6645  3.51$  11.19$  14.44$
|563>   Q  0.6645  4.14$  9.9$  14.36$
|564>   Q  -1.3290  3.55$  10.4$  14.18$
|565>   Q  0.6645  12.88$  20.23$  11.05$
|566>   Q  0.6645  14.24$  19.8$  10.54$
|567>   Q  -1.3290  13.67$  20.01$  11.14$
|568>   Q  0.6645  7.36$  7.14$  10.41$
|569>   Q  0.6645  7.19$  8.04$  9.12$
|570>   Q  -1.3290  7.37$  7.34$  9.58$
|571>   Q  0.6645  10.66$  14.99$  19.7$
|572>   Q  0.6645  11.54$  13.78$  19.83$
|573>   Q  -1.3290  10.83$  14.18$  19.62$
|574>   Q  0.6645  4.39$  11.85$  20.39$
|575>   Q  0.6645  5.12$  12.8$  19.31$
|576>   Q  -1.3290  4.49$  12.27$  19.64$
|577>   Q  0.6645  11.82$  14.4$  3.73$
|578>   Q  0.6645  12.87$  13.31$  3.66$
|579>   Q  -1.3290  12.11$  13.6$  3.77$
|580>   Q  0.6645  9.36$  19.37$  11.14$
|581>   Q  0.6645  10.19$  20.74$  10.92$
|582>   Q  -1.3290  10.04$  19.89$  11.07$
|583>   Q  0.6645  14.08$  17.7$  15.03$
|584>   Q  0.6645  14.44$  17.68$  16.52$
|585>   Q  -1.3290  14.1$  17.37$  15.8$
|586>   Q  0.6645  8.57$  18.88$  6.98$
|587>   Q  0.6645  7.69$  19.15$  5.75$
|588>   Q  -1.3290  8.41$  18.99$  6.18$
|589>   Q  0.6645  4.42$  13.68$  11.71$
|590>   Q  0.6645  3.09$  13.05$  12.11$
|591>   Q  -1.3290  3.7$  13.25$  11.57$
|592>   Q  0.6645  14.94$  9.88$  20.91$
|593>   Q  0.6645  16.13$  9.25$  21.66$
|594>   Q  -1.3290  15.42$  9.71$  21.59$
|595>   Q  0.6645  17.12$  12.7$  11.47$
|596>   Q  0.6645  18.24$  13.15$  10.53$
|597>   Q  -1.3290  17.66$  13.27$  11.16$
|598>   Q  0.6645  5.69$  19.5$  5.97$
|599>   Q  0.6645  6.18$  20.8$  5.21$
|600>   Q  -1.3290  6.02$  19.97$  5.31$
|601>   Q  0.6645  11.57$  18.49$  12.41$
|602>   Q  0.6645  12.23$  17.96$  13.75$
|603>   Q  -1.3290  11.86$  17.91$  12.96$
|604>   Q  0.6645  5.04$  9.48$  19.91$
|605>   Q  0.6645  5.75$  10.36$  18.94$
|606>   Q  -1.3290  5.68$  9.75$  19.47$
|607>   Q  0.6645  8.72$  2.15$  13.55$
|608>   Q  0.6645  7.83$  2.32$  12.29$
|609>   Q  -1.3290  8$  2.29$  13.13$
|610>   Q  0.6645  17.85$  12.46$  5.71$
|611>   Q  0.6645  18.17$  11.33$  4.68$
|612>   Q  -1.3290  18.35$  12.04$  5.15$
|613>   Q  0.6645  2.42$  5.15$  13.04$
|614>   Q  0.6645  1.3$  4.59$  12.19$
|615>   Q  -1.3290  1.66$  4.89$  12.89$
|616>   Q  0.6645  10.21$  10.26$  1.01$
|617>   Q  0.6645  8.88$  9.59$  0.5$
|618>   Q  -1.3290  9.35$  10.11$  0.94$
|619>   Q  0.6645  8.35$  5.25$  16.65$
|620>   Q  0.6645  6.96$  5.03$  16.06$
|621>   Q  -1.3290  7.77$  4.88$  16.15$
|622>   Q  0.6645  14.4$  4.01$  15.82$
|623>   Q  0.6645  15.34$  2.92$  15.78$
|624>   Q  -1.3290  15.16$  3.71$  15.77$
|625>   Q  0.6645  12.14$  10.56$  2.28$
|626>   Q  0.6645  12.8$  11.01$  0.98$
|627>   Q  -1.3290  12.18$  10.68$  1.46$
|628>   Q  0.6645  11.85$  5.56$  7.52$
|629>   Q  0.6645  10.81$  5$  6.74$
|630>   Q  -1.3290  11.57$  4.99$  7.03$
|631>   Q  0.6645  15.24$  9.55$  1.9$
|632>   Q  0.6645  15.25$  8.41$  3.02$
|633>   Q  -1.3290  15.23$  9.24$  2.69$
|634>   Q  0.6645  14.41$  9.04$  19.14$
|635>   Q  0.6645  14.11$  10.44$  18.52$
|636>   Q  -1.3290  14.52$  9.89$  18.99$
|637>   Q  0.6645  1.77$  8.52$  11.89$
|638>   Q  0.6645  2.91$  9.49$  12.22$
|639>   Q  -1.3290  2.39$  9.07$  11.72$
|640>   Q  0.6645  20.04$  8.21$  14.49$
|641>   Q  0.6645  20.37$  6.76$  14.96$
|642>   Q  -1.3290  20.09$  7.56$  15.03$
|643>   Q  0.6645  8.99$  16.12$  18$
|644>   Q  0.6645  7.83$  16.19$  17.03$
|645>   Q  -1.3290  8.2$  16.1$  17.79$
|646>   Q  0.6645  1.58$  13.17$  14$
|647>   Q  0.6645  0.64$  12.87$  12.86$
|648>   Q  -1.3290  1.37$  13.15$  13.21$
|649>   Q  0.6645  16.65$  15.68$  18.05$
|650>   Q  0.6645  17.01$  17.04$  18.77$
|651>   Q  -1.3290  16.79$  16.52$  18.11$
|652>   Q  0.6645  15.59$  6.01$  18.02$
|653>   Q  0.6645  15.52$  4.59$  17.45$
|654>   Q  -1.3290  15.38$  5.18$  18.03$
|655>   Q  0.6645  6.1$  19.18$  8.18$
|656>   Q  0.6645  4.82$  18.25$  8.17$
|657>   Q  -1.3290  5.54$  18.66$  7.85$
|658>   Q  0.6645  14.04$  4.65$  4.22$
|659>   Q  0.6645  14.55$  3.46$  3.45$
|660>   Q  -1.3290  14.64$  4.19$  3.91$
|661>   Q  0.6645  15.76$  5.96$  3.68$
|662>   Q  0.6645  16.72$  7.06$  4.1$
|663>   Q  -1.3290  16.24$  6.63$  3.54$
|664>   Q  0.6645  10.39$  18.02$  5.53$
|665>   Q  0.6645  11.83$  17.44$  5.53$
|666>   Q  -1.3290  11.18$  17.92$  5.23$
|667>   Q  0.6645  8.99$  11.52$  21.58$
|668>   Q  0.6645  9.61$  12.48$  20.64$
|669>   Q  -1.3290  8.97$  12.02$  20.93$
|670> *
|671> 
|672>                          ****END OF INPUT****
================================================================================

                     *******************************
                     * Energy+Gradient Calculation *
                     *******************************

---------------------------------
CARTESIAN COORDINATES (ANGSTROEM)
---------------------------------
  C     10.100000    9.760000   11.630000
  H      9.600000   10.170000   10.740000
  H      9.550000    9.200000   12.380000
  C     10.890000   10.830000   12.240000
  H     10.240000   11.390000   12.940000
  H     11.730000   10.480000   12.850000
  C     11.450000   11.690000   11.130000
  H     11.570000   11.080000   10.250000
  H     12.350000   12.250000   11.540000
  C     10.340000   12.770000   10.640000
  H     10.010000   13.370000   11.510000
  H      9.490000   12.290000   10.210000
  O     10.890000   13.700000    9.690000
  H     11.290000   13.220000    8.900000
  O     11.070000    8.760000   11.260000
  H     10.700000    8.150000   10.590000
  O      9.710000    7.630000   14.490000
  H      9.420000    8.300000   15.150000
  H     10.670000    7.560000   14.670000
  O     13.840000    8.450000   10.110000
  H     13.040000    8.670000   10.520000
  H     13.920000    7.460000   10.150000
  O     14.850000   13.430000   13.290000
  H     14.260000   14.040000   12.780000
  H     15.160000   13.840000   14.060000
  O      7.210000   12.840000    9.170000
  H      6.550000   13.050000    8.440000
  H      8.030000   13.170000    8.720000
  O      9.910000   10.850000    7.750000
  H     10.200000   11.160000    6.920000
  H     10.580000   10.110000    7.990000
  O     15.970000   14.940000   15.380000
  H     15.530000   15.690000   15.790000
  H     16.570000   15.280000   14.710000
  O     12.910000    9.830000   15.570000
  H     12.900000   10.700000   15.190000
  H     12.730000    9.250000   14.820000
  O     13.620000   15.140000   11.640000
  H     13.800000   14.990000   10.660000
  H     12.820000   15.600000   11.630000
  O     11.970000    8.860000    7.860000
  H     12.770000    9.090000    8.360000
  H     11.480000    8.210000    8.360000
  O     12.710000   12.550000   15.180000
  H     13.160000   12.940000   14.420000
  H     12.000000   13.100000   15.360000
  O     10.200000    6.900000    9.300000
  H      9.280000    6.840000    9.150000
  H     10.390000    6.110000    9.820000
  O     12.310000   13.350000    7.150000
  H     11.620000   13.710000    6.600000
  H     12.730000   14.030000    7.650000
  O     10.110000    4.930000   13.730000
  H      9.720000    5.540000   14.360000
  H     10.000000    4.100000   14.280000
  O     12.500000    7.940000   13.710000
  H     12.130000    8.370000   12.950000
  H     13.320000    7.490000   13.520000
  O     10.250000   11.230000    4.930000
  H     11.120000   11.660000    4.720000
  H      9.630000   11.490000    4.230000
  O      7.530000   10.930000   13.120000
  H      7.630000   11.790000   13.500000
  H      6.930000   11.090000   12.310000
  O      8.260000   15.190000    8.220000
  H      8.770000   15.220000    7.420000
  H      7.400000   15.550000    7.920000
  O      5.240000   12.640000    7.060000
  H      4.990000   11.720000    7.070000
  H      4.420000   13.010000    7.410000
  O     15.550000   11.280000   11.520000
  H     14.930000   11.870000   12.020000
  H     15.190000   11.300000   10.630000
  O      5.840000   11.360000   10.880000
  H      6.360000   11.980000   10.390000
  H      5.010000   11.850000   11.010000
  O      9.580000   15.720000   13.460000
  H      9.090000   15.370000   12.700000
  H     10.340000   16.140000   13.100000
  O     14.370000    5.730000   10.340000
  H     14.660000    5.810000   11.250000
  H     15.150000    5.520000    9.890000
  O     10.530000    9.260000   17.000000
  H      9.900000   10.000000   16.820000
  H     11.250000    9.460000   16.390000
  O     14.950000   10.340000    8.710000
  H     15.890000   10.450000    8.650000
  H     14.850000    9.420000    9.100000
  O      8.100000   15.640000   10.960000
  H      8.010000   15.260000   10.040000
  H      7.930000   16.630000   11.000000
  O     10.980000   16.250000   10.170000
  H     10.860000   15.300000   10.070000
  H     10.200000   16.580000   10.580000
  O      7.680000    7.000000   12.290000
  H      7.290000    6.090000   12.450000
  H      8.370000    7.230000   12.900000
  O      7.410000    9.800000    8.090000
  H      6.880000   10.450000    8.550000
  H      8.300000   10.100000    7.840000
  O     10.590000    8.390000    5.030000
  H     11.230000    8.360000    5.740000
  H     10.310000    9.360000    5.130000
  Q      6.920000   13.920000   13.340000
  Q      8.010000   14.370000   14.380000
  Q      7.470000   13.820000   14.010000
  Q      7.480000   21.160000    9.190000
  Q      8.380000   20.000000    9.170000
  Q      7.650000   20.360000    9.210000
  Q      5.100000    6.870000   16.360000
  Q      4.590000    5.590000   16.910000
  Q      5.040000    6.040000   16.380000
  Q      4.880000    8.740000   17.890000
  Q      5.140000    9.130000   16.500000
  Q      4.670000    8.790000   17.080000
  Q     18.010000    9.330000   12.120000
  Q     19.160000    8.710000   11.470000
  Q     18.710000    9.370000   11.720000
  Q      0.560000   13.090000   10.230000
  Q      1.890000   13.550000   10.630000
  Q      1.250000   13.500000   10.100000
  Q     17.810000   10.890000   18.050000
  Q     16.210000   10.520000   18.190000
  Q     17.010000   10.600000   17.810000
  Q     16.990000    5.640000    8.320000
  Q     16.130000    4.410000    7.680000
  Q     16.540000    4.890000    8.290000
  Q     12.160000    8.380000    1.780000
  Q     11.640000    8.130000    3.270000
  Q     11.910000    7.920000    2.460000
  Q      7.300000    2.460000   10.060000
  Q      8.480000    3.370000   10.650000
  Q      8.050000    2.660000   10.440000
  Q      9.840000   18.900000   14.970000
  Q      9.340000   18.500000   16.370000
  Q      9.800000   18.420000   15.660000
  Q     15.910000    9.780000   12.310000
  Q     16.360000    9.440000   13.700000
  Q     16.380000    9.350000   12.870000
  Q     10.450000   -0.330000    6.790000
  Q      9.840000    0.880000    6.030000
  Q     10.030000    0.430000    6.710000
  Q     18.860000   16.590000    7.200000
  Q     19.540000   16.680000    8.530000
  Q     18.990000   16.920000    7.950000
  Q     21.120000   13.200000   15.200000
  Q     19.710000   12.620000   15.430000
  Q     20.500000   12.570000   15.150000
  Q      2.900000   10.770000    5.800000
  Q      2.090000   11.890000    5.420000
  Q      2.430000   11.160000    5.300000
  Q     10.100000   15.910000    2.100000
  Q     10.910000   16.590000    3.260000
  Q     10.500000   15.960000    2.880000
  Q     18.990000    7.060000    4.690000
  Q     18.290000    7.240000    6.070000
  Q     18.390000    7.320000    5.220000
  Q      2.620000   17.200000    8.540000
  Q      3.830000   16.960000    9.430000
  Q      3.440000   17.000000    8.700000
  Q     11.370000    6.530000   18.680000
  Q     12.420000    5.330000   18.980000
  Q     11.860000    5.790000   18.500000
  Q      4.200000   16.330000    5.890000
  Q      3.520000   15.740000    4.730000
  Q      3.540000   16.120000    5.450000
  Q      0.960000    9.980000   10.660000
  Q     -0.040000    9.550000    9.610000
  Q      0.210000   10.030000   10.230000
  Q     12.320000    4.290000   15.210000
  Q     12.250000    4.820000   16.750000
  Q     12.460000    4.270000   16.090000
  Q      1.470000    8.860000   16.730000
  Q      2.670000    8.470000   17.480000
  Q      1.840000    8.560000   17.390000
  Q      6.790000    2.300000    6.450000
  Q      7.900000    1.280000    6.200000
  Q      7.200000    1.690000    6.050000
  Q     10.130000    4.760000   11.810000
  Q     11.100000    4.170000   10.890000
  Q     10.430000    4.570000   11.050000
  Q     13.300000   10.660000    4.820000
  Q     13.470000    9.860000    3.600000
  Q     13.020000   10.270000    4.140000
  Q     18.380000   19.320000   11.600000
  Q     18.580000   19.030000   10.160000
  Q     18.410000   18.830000   10.940000
  Q     16.460000    3.060000   11.020000
  Q     16.910000    3.760000    9.740000
  Q     17.020000    3.340000   10.450000
  Q     16.360000   17.530000   11.390000
  Q     15.410000   16.310000   11.510000
  Q     16.140000   16.700000   11.420000
  Q      6.470000    1.410000   14.150000
  Q      5.920000    0.200000   15.010000
  Q      5.940000    0.780000   14.370000
  Q     11.160000   16.520000   18.420000
  Q     11.150000   17.240000   19.780000
  Q     10.790000   16.760000   19.160000
  Q      9.250000   20.340000   13.200000
  Q     10.020000   21.380000   13.920000
  Q      9.660000   20.660000   13.880000
  Q     14.080000   19.610000    6.070000
  Q     15.530000   19.340000    5.800000
  Q     14.760000   19.480000    5.600000
  Q     12.130000   20.320000    7.590000
  Q     11.760000   19.720000    6.290000
  Q     11.990000   20.360000    6.800000
  Q      8.510000    1.530000   17.600000
  Q      8.410000    2.860000   16.720000
  Q      8.780000    2.250000   17.230000
  Q     17.270000   17.420000    8.500000
  Q     16.320000   16.550000    9.340000
  Q     16.520000   17.130000    8.760000
  Q      5.290000   15.680000   12.250000
  Q      6.600000   15.190000   11.680000
  Q      5.890000   15.110000   12.110000
  Q     12.260000    2.700000    2.580000
  Q     11.790000    3.920000    3.260000
  Q     11.690000    3.150000    2.940000
  Q     12.900000   20.130000   14.270000
  Q     13.600000   19.460000   13.130000
  Q     13.470000   19.650000   13.920000
  Q      3.710000    4.250000    5.630000
  Q      3.150000    4.840000    6.990000
  Q      3.110000    4.400000    6.250000
  Q      3.830000   17.910000   11.600000
  Q      3.340000   16.500000   11.570000
  Q      3.850000   17.120000   11.330000
  Q      1.610000   15.280000   13.020000
  Q      1.530000   16.770000   13.190000
  Q      1.920000   16.060000   12.990000
  Q      7.340000   21.090000   16.540000
  Q      7.660000   21.120000   15.020000
  Q      7.240000   20.900000   15.730000
  Q      9.930000   14.710000    5.100000
  Q      9.310000   13.480000    5.820000
  Q      9.740000   14.190000    5.760000
  Q     10.500000   13.970000   17.770000
  Q     11.020000   14.730000   16.520000
  Q     10.700000   14.080000   16.960000
  Q      6.140000    4.210000   19.340000
  Q      7.470000    4.760000   19.770000
  Q      6.680000    4.690000   19.790000
  Q     10.390000   18.440000    8.800000
  Q      9.790000   17.120000    8.760000
  Q      9.770000   17.950000    8.660000
  Q      6.260000   13.480000    5.540000
  Q      5.470000   13.750000    4.150000
  Q      6.140000   13.710000    4.710000
  Q     17.280000    2.920000    5.850000
  Q     15.780000    3.310000    5.400000
  Q     16.440000    3.110000    5.940000
  Q      8.900000   15.930000    0.140000
  Q      8.900000   17.260000    0.850000
  Q      9.170000   16.500000    0.680000
  Q      5.150000    5.030000    8.010000
  Q      4.310000    5.070000    9.340000
  Q      4.620000    5.330000    8.590000
  Q      5.300000    9.330000   11.890000
  Q      6.140000    8.370000   12.620000
  Q      5.520000    8.850000   12.500000
  Q      3.510000   13.310000   15.800000
  Q      2.460000   12.590000   16.340000
  Q      2.890000   12.830000   15.710000
  Q     14.920000   12.690000    2.840000
  Q     15.080000   11.990000    4.360000
  Q     14.870000   12.590000    3.710000
  Q     14.000000    0.970000   14.730000
  Q     13.330000    1.020000   13.390000
  Q     13.320000    1.000000   14.230000
  Q      7.620000    8.670000    3.010000
  Q      9.030000    8.390000    3.600000
  Q      8.230000    8.170000    3.350000
  Q     13.840000   13.220000    0.310000
  Q     15.130000   12.210000    0.310000
  Q     14.500000   12.710000    0.630000
  Q     12.240000    5.090000   13.200000
  Q     13.720000    5.320000   13.640000
  Q     13.060000    4.890000   13.310000
  Q     14.670000    3.170000   13.040000
  Q     16.020000    3.450000   13.590000
  Q     15.490000    3.100000   13.060000
  Q      7.620000   12.890000    0.090000
  Q      7.300000   13.820000    1.250000
  Q      7.110000   13.400000    0.540000
  Q     19.950000   10.120000   12.830000
  Q     20.410000   10.980000   14.000000
  Q     20.370000   10.290000   13.510000
  Q      7.530000   13.230000   19.630000
  Q      7.360000   14.200000   18.660000
  Q      7.140000   13.540000   19.040000
  Q     12.690000   15.390000   21.120000
  Q     11.920000   14.320000   22.080000
  Q     12.520000   14.630000   21.530000
  Q     10.020000    1.920000   15.610000
  Q     11.200000    1.770000   14.780000
  Q     10.370000    1.820000   14.880000
  Q      7.010000   11.050000   15.960000
  Q      6.540000   10.470000   14.520000
  Q      6.500000   10.650000   15.390000
  Q      8.310000    4.170000    3.760000
  Q      7.800000    2.840000    3.410000
  Q      7.830000    3.670000    3.330000
  Q     18.580000    4.310000   11.480000
  Q     18.900000    4.970000   12.850000
  Q     19.060000    4.710000   12.050000
  Q     17.800000    6.530000   14.810000
  Q     17.440000    4.950000   14.900000
  Q     17.480000    5.750000   14.560000
  Q     14.060000   12.930000   18.120000
  Q     12.770000   12.580000   17.500000
  Q     13.310000   12.510000   18.090000
  Q     11.690000    1.540000    7.600000
  Q     12.090000    2.950000    7.220000
  Q     12.210000    2.160000    7.540000
  Q      4.710000   11.520000    2.630000
  Q      3.990000   11.520000    3.930000
  Q      4.280000   11.880000    3.240000
  Q     12.630000    2.530000   19.150000
  Q     12.310000    2.720000   17.610000
  Q     12.220000    2.430000   18.430000
  Q      6.050000   18.580000    3.790000
  Q      6.070000   17.120000    3.500000
  Q      5.680000   17.870000    3.540000
  Q     18.080000    6.990000   18.050000
  Q     17.040000    8.070000   17.500000
  Q     17.380000    7.480000   18.060000
  Q     18.770000   13.900000   12.410000
  Q     20.100000   13.620000   13.160000
  Q     19.520000   14.120000   12.830000
  Q     15.630000    0.870000   12.420000
  Q     15.400000   -0.620000   12.280000
  Q     15.820000    0.090000   12.300000
  Q      7.060000   18.720000   12.310000
  Q      7.290000   18.690000   10.690000
  Q      7.390000   18.460000   11.520000
  Q      3.660000    9.330000    2.880000
  Q      3.670000    9.260000    4.490000
  Q      3.980000    9.150000    3.690000
  Q      5.500000   18.040000   14.740000
  Q      6.470000   19.300000   14.700000
  Q      6.030000   18.610000   14.420000
  Q     15.350000   12.330000    6.980000
  Q     15.910000   13.640000    6.470000
  Q     15.830000   12.990000    7.000000
  Q      3.880000    5.970000   19.140000
  Q      5.350000    6.340000   19.270000
  Q      4.530000    6.490000   19.160000
  Q     13.040000    4.230000   10.180000
  Q     12.540000    3.020000    9.440000
  Q     12.680000    3.480000   10.110000
  Q      8.550000   16.540000   14.770000
  Q      7.140000   17.070000   14.820000
  Q      7.750000   16.510000   15.040000
  Q      7.410000    8.640000   20.490000
  Q      7.470000    7.490000   21.580000
  Q      7.770000    8.140000   21.060000
  Q      0.840000    6.570000   12.960000
  Q      0.780000    7.970000   13.780000
  Q      0.800000    7.430000   13.080000
  Q      8.400000   15.950000    3.320000
  Q      7.270000   15.170000    4.200000
  Q      7.720000   15.860000    3.820000
  Q     18.640000   13.770000   17.030000
  Q     17.410000   13.940000   16.000000
  Q     18.120000   13.590000   16.330000
  Q      2.950000   14.760000    7.600000
  Q      2.230000   13.710000    8.440000
  Q      2.600000   14.030000    7.730000
  Q     11.060000   16.920000   16.130000
  Q     12.500000   16.540000   16.370000
  Q     11.670000   16.470000   16.430000
  Q      6.010000   17.070000    6.800000
  Q      6.960000   16.340000    5.910000
  Q      6.380000   16.370000    6.490000
  Q     18.900000    7.110000    8.380000
  Q     17.810000    8.070000    8.660000
  Q     18.130000    7.430000    8.260000
  Q     15.930000   14.130000    8.730000
  Q     16.400000   14.450000   10.150000
  Q     15.880000   14.460000    9.500000
  Q     12.860000    1.780000   11.400000
  Q     13.840000    0.680000   10.950000
  Q     13.340000    1.110000   11.480000
  Q     21.340000   11.600000   11.190000
  Q     20.580000   12.840000   10.950000
  Q     21.160000   12.390000   11.320000
  Q      0.090000    9.820000   14.660000
  Q      1.660000   10.050000   14.720000
  Q      0.910000    9.680000   14.900000
  Q      4.080000    9.100000    7.300000
  Q      5.050000    9.400000    6.100000
  Q      4.460000    9.570000    6.690000
  Q      9.390000    1.150000    9.980000
  Q      9.820000    0.590000    8.690000
  Q      9.710000    0.570000    9.520000
  Q     13.800000    7.800000   20.630000
  Q     15.280000    7.360000   20.900000
  Q     14.550000    7.420000   20.420000
  Q      5.180000   14.900000   15.580000
  Q      6.020000   13.790000   15.750000
  Q      5.360000   14.200000   15.910000
  Q     14.250000   15.720000    6.300000
  Q     14.700000   16.170000    7.780000
  Q     14.160000   15.970000    7.120000
  Q      5.070000    2.570000    9.100000
  Q      5.570000    1.550000    8.000000
  Q      5.630000    2.210000    8.550000
  Q     10.900000   10.770000   19.600000
  Q     12.270000   11.540000   19.610000
  Q     11.580000   11.150000   19.990000
  Q      1.980000   14.280000    4.220000
  Q      2.070000   14.150000    5.720000
  Q      1.800000   13.930000    4.960000
  Q      7.050000    6.220000    7.990000
  Q      6.670000    6.560000    6.590000
  Q      6.930000    6.050000    7.180000
  Q     14.830000   17.590000    3.280000
  Q     15.360000   18.030000    4.630000
  Q     15.370000   17.580000    3.920000
  Q     12.290000    6.260000    3.270000
  Q     12.260000    6.060000    4.780000
  Q     12.410000    5.820000    3.970000
  Q      6.260000   16.610000   18.400000
  Q      5.380000   15.570000   17.850000
  Q      5.550000   16.210000   18.330000
  Q      3.550000    2.960000   11.080000
  Q      4.790000    3.760000   11.000000
  Q      4.070000    3.480000   10.730000
  Q     13.920000   10.710000    7.090000
  Q     13.400000   12.040000    6.420000
  Q     13.860000   11.320000    6.470000
  Q     18.340000   17.500000   15.180000
  Q     17.950000   17.250000   16.590000
  Q     18.240000   17.720000   15.970000
  Q     15.980000    6.240000   13.380000
  Q     15.550000    7.510000   12.790000
  Q     15.430000    6.730000   13.040000
  Q     19.580000   11.260000    6.600000
  Q     20.510000   10.560000    7.600000
  Q     20.010000   11.160000    7.330000
  Q     13.380000   17.220000    1.130000
  Q     13.310000   18.460000    1.870000
  Q     13.420000   17.650000    1.820000
  Q     16.870000    9.810000    3.380000
  Q     17.920000    9.170000    4.300000
  Q     17.620000    9.780000    3.780000
  Q      9.540000    6.230000    5.140000
  Q      8.640000    5.460000    6.230000
  Q      9.360000    5.690000    5.810000
  Q     19.150000   16.960000    4.960000
  Q     17.790000   16.020000    5.000000
  Q     18.350000   16.700000    5.190000
  Q      5.670000    9.410000    2.690000
  Q      5.860000    9.900000    1.160000
  Q      6.090000    9.630000    1.960000
  Q      9.480000   18.400000   18.560000
  Q      9.180000   19.880000   18.370000
  Q      9.040000   19.040000   18.270000
  Q      7.960000   11.410000    2.530000
  Q      7.530000   12.040000    3.850000
  Q      8.070000   11.840000    3.250000
  Q     17.390000   16.180000   12.960000
  Q     18.690000   15.710000   13.540000
  Q     17.930000   16.060000   13.570000
  Q     18.930000   16.800000   10.830000
  Q     19.390000   15.290000   10.990000
  Q     19.410000   16.090000   10.680000
  Q      4.190000    7.390000    8.920000
  Q      3.200000    8.260000    9.680000
  Q      3.650000    8.010000    8.980000
  Q     16.200000   13.470000   19.230000
  Q     16.510000   12.980000   17.810000
  Q     16.030000   13.340000   18.390000
  Q      9.070000   12.210000   16.500000
  Q      8.320000   11.750000   17.780000
  Q      8.710000   11.670000   17.030000
  Q      9.670000    7.620000   20.160000
  Q     10.130000    8.220000   18.690000
  Q     10.200000    7.750000   19.440000
  Q      9.380000    3.590000   18.820000
  Q     10.370000    4.640000   19.220000
  Q      9.630000    4.220000   19.280000
  Q      7.080000    8.670000    6.600000
  Q      7.380000    8.360000    5.170000
  Q      6.870000    8.450000    5.840000
  Q     17.870000   10.200000    9.980000
  Q     18.540000   10.840000    8.740000
  Q     17.910000   10.540000    9.190000
  Q     10.540000   13.140000    2.010000
  Q     11.140000   12.260000    1.000000
  Q     10.770000   12.960000    1.250000
  Q      2.210000    6.710000    8.240000
  Q      0.850000    5.970000    8.180000
  Q      1.680000    6.050000    8.290000
  Q      3.480000   16.670000   14.790000
  Q      3.290000   17.150000   16.220000
  Q      3.740000   17.040000   15.480000
  Q     16.220000   10.050000   16.170000
  Q     14.770000    9.610000   15.600000
  Q     15.640000    9.620000   15.640000
  Q     12.190000   17.570000    9.300000
  Q     13.270000   18.710000    8.860000
  Q     12.480000   18.310000    8.890000
  Q      4.960000   19.280000   13.220000
  Q      3.400000   19.370000   13.010000
  Q      4.220000   19.450000   12.780000
  Q     11.700000    8.080000   20.910000
  Q     12.140000    9.420000   21.410000
  Q     12.210000    8.590000   21.330000
  Q      3.950000    6.910000   13.260000
  Q      4.270000    6.210000   14.570000
  Q      4.110000    6.240000   13.760000
  Q     15.690000   15.580000    4.500000
  Q     15.900000   14.040000    4.170000
  Q     15.990000   14.790000    4.650000
  Q     14.820000    0.560000    7.970000
  Q     13.650000    1.190000    8.630000
  Q     14.370000    0.780000    8.630000
  Q     18.030000   19.780000    6.060000
  Q     17.500000   18.390000    6.290000
  Q     17.500000   19.220000    6.400000
  Q      6.780000    3.990000   12.650000
  Q      5.530000    4.880000   13.020000
  Q      6.160000    4.560000   12.500000
  Q      7.340000   20.780000   11.530000
  Q      6.700000   21.550000   12.700000
  Q      7.240000   21.000000   12.340000
  Q     15.150000   20.230000    8.580000
  Q     15.440000   18.730000    8.900000
  Q     14.940000   19.440000    8.860000
  Q     20.030000   14.270000    9.280000
  Q     20.110000   12.780000    8.780000
  Q     19.850000   13.440000    9.290000
  Q      3.510000   11.190000   14.440000
  Q      4.140000    9.900000   14.360000
  Q      3.550000   10.400000   14.180000
  Q     12.880000   20.230000   11.050000
  Q     14.240000   19.800000   10.540000
  Q     13.670000   20.010000   11.140000
  Q      7.360000    7.140000   10.410000
  Q      7.190000    8.040000    9.120000
  Q      7.370000    7.340000    9.580000
  Q     10.660000   14.990000   19.700000
  Q     11.540000   13.780000   19.830000
  Q     10.830000   14.180000   19.620000
  Q      4.390000   11.850000   20.390000
  Q      5.120000   12.800000   19.310000
  Q      4.490000   12.270000   19.640000
  Q     11.820000   14.400000    3.730000
  Q     12.870000   13.310000    3.660000
  Q     12.110000   13.600000    3.770000
  Q      9.360000   19.370000   11.140000
  Q     10.190000   20.740000   10.920000
  Q     10.040000   19.890000   11.070000
  Q     14.080000   17.700000   15.030000
  Q     14.440000   17.680000   16.520000
  Q     14.100000   17.370000   15.800000
  Q      8.570000   18.880000    6.980000
  Q      7.690000   19.150000    5.750000
  Q      8.410000   18.990000    6.180000
  Q      4.420000   13.680000   11.710000
  Q      3.090000   13.050000   12.110000
  Q      3.700000   13.250000   11.570000
  Q     14.940000    9.880000   20.910000
  Q     16.130000    9.250000   21.660000
  Q     15.420000    9.710000   21.590000
  Q     17.120000   12.700000   11.470000
  Q     18.240000   13.150000   10.530000
  Q     17.660000   13.270000   11.160000
  Q      5.690000   19.500000    5.970000
  Q      6.180000   20.800000    5.210000
  Q      6.020000   19.970000    5.310000
  Q     11.570000   18.490000   12.410000
  Q     12.230000   17.960000   13.750000
  Q     11.860000   17.910000   12.960000
  Q      5.040000    9.480000   19.910000
  Q      5.750000   10.360000   18.940000
  Q      5.680000    9.750000   19.470000
  Q      8.720000    2.150000   13.550000
  Q      7.830000    2.320000   12.290000
  Q      8.000000    2.290000   13.130000
  Q     17.850000   12.460000    5.710000
  Q     18.170000   11.330000    4.680000
  Q     18.350000   12.040000    5.150000
  Q      2.420000    5.150000   13.040000
  Q      1.300000    4.590000   12.190000
  Q      1.660000    4.890000   12.890000
  Q     10.210000   10.260000    1.010000
  Q      8.880000    9.590000    0.500000
  Q      9.350000   10.110000    0.940000
  Q      8.350000    5.250000   16.650000
  Q      6.960000    5.030000   16.060000
  Q      7.770000    4.880000   16.150000
  Q     14.400000    4.010000   15.820000
  Q     15.340000    2.920000   15.780000
  Q     15.160000    3.710000   15.770000
  Q     12.140000   10.560000    2.280000
  Q     12.800000   11.010000    0.980000
  Q     12.180000   10.680000    1.460000
  Q     11.850000    5.560000    7.520000
  Q     10.810000    5.000000    6.740000
  Q     11.570000    4.990000    7.030000
  Q     15.240000    9.550000    1.900000
  Q     15.250000    8.410000    3.020000
  Q     15.230000    9.240000    2.690000
  Q     14.410000    9.040000   19.140000
  Q     14.110000   10.440000   18.520000
  Q     14.520000    9.890000   18.990000
  Q      1.770000    8.520000   11.890000
  Q      2.910000    9.490000   12.220000
  Q      2.390000    9.070000   11.720000
  Q     20.040000    8.210000   14.490000
  Q     20.370000    6.760000   14.960000
  Q     20.090000    7.560000   15.030000
  Q      8.990000   16.120000   18.000000
  Q      7.830000   16.190000   17.030000
  Q      8.200000   16.100000   17.790000
  Q      1.580000   13.170000   14.000000
  Q      0.640000   12.870000   12.860000
  Q      1.370000   13.150000   13.210000
  Q     16.650000   15.680000   18.050000
  Q     17.010000   17.040000   18.770000
  Q     16.790000   16.520000   18.110000
  Q     15.590000    6.010000   18.020000
  Q     15.520000    4.590000   17.450000
  Q     15.380000    5.180000   18.030000
  Q      6.100000   19.180000    8.180000
  Q      4.820000   18.250000    8.170000
  Q      5.540000   18.660000    7.850000
  Q     14.040000    4.650000    4.220000
  Q     14.550000    3.460000    3.450000
  Q     14.640000    4.190000    3.910000
  Q     15.760000    5.960000    3.680000
  Q     16.720000    7.060000    4.100000
  Q     16.240000    6.630000    3.540000
  Q     10.390000   18.020000    5.530000
  Q     11.830000   17.440000    5.530000
  Q     11.180000   17.920000    5.230000
  Q      8.990000   11.520000   21.580000
  Q      9.610000   12.480000   20.640000
  Q      8.970000   12.020000   20.930000

----------------------------
CARTESIAN COORDINATES (A.U.)
----------------------------
  NO LB      ZA    FRAG     MASS         X           Y           Z
   0 C     6.0000    0    12.011   19.086234   18.443727   21.977515
   1 H     1.0000    0     1.008   18.141371   19.218515   20.295659
   2 H     1.0000    0     1.008   18.046885   17.385480   23.394810
   3 C     6.0000    0    12.011   20.579118   20.465734   23.130248
   4 H     1.0000    0     1.008   19.350796   21.523981   24.453056
   5 H     1.0000    0     1.008   22.166488   19.804330   24.282981
   6 C     6.0000    0    12.011   21.637364   22.090899   21.032652
   7 H     1.0000    0     1.008   21.864131   20.938166   19.369693
   8 H     1.0000    0     1.008   23.338118   23.149145   21.807440
   9 C     6.0000    0    12.011   19.539768   24.131803   20.106686
  10 H     1.0000    0     1.008   18.916159   25.265638   21.750748
  11 H     1.0000    0     1.008   17.933501   23.224734   19.294104
  12 O     8.0000    0    15.999   20.579118   25.889248   18.311446
  13 H     1.0000    0     1.008   21.335008   24.982179   16.818563
  14 O     8.0000    0    15.999   20.919268   16.554001   21.278316
  15 H     1.0000    0     1.008   20.220070   15.401268   20.012200
  16 O     8.0000    0    15.999   18.349241   14.418610   27.382132
  17 H     1.0000    0     1.008   17.801220   15.684727   28.629351
  18 H     1.0000    0     1.008   20.163378   14.286330   27.722282
  19 O     8.0000    0    15.999   26.153810   15.968186   19.105131
  20 H     1.0000    0     1.008   24.642029   16.383926   19.879919
  21 H     1.0000    0     1.008   26.304988   14.097357   19.180720
  22 O     8.0000    0    15.999   28.062433   25.379022   25.114460
  23 H     1.0000    0     1.008   26.947495   26.531755   24.150700
  24 H     1.0000    0     1.008   28.648248   26.153810   26.569549
  25 O     8.0000    0    15.999   13.624925   24.264084   17.328789
  26 H     1.0000    0     1.008   12.377706   24.660926   15.949289
  27 H     1.0000    0     1.008   15.174501   24.887693   16.478412
  28 O     8.0000    0    15.999   18.727186   20.503529   14.645378
  29 H     1.0000    0     1.008   19.275207   21.089344   13.076905
  30 H     1.0000    0     1.008   19.993302   19.105131   15.098912
  31 O     8.0000    0    15.999   30.178926   28.232508   29.063988
  32 H     1.0000    0     1.008   29.347447   29.649803   29.838776
  33 H     1.0000    0     1.008   31.312762   28.875015   27.797871
  34 O     8.0000    0    15.999   24.396364   18.576008   29.423036
  35 H     1.0000    0     1.008   24.377467   20.220070   28.704940
  36 H     1.0000    0     1.008   24.056214   17.479967   28.005741
  37 O     8.0000    0    15.999   25.738070   28.610454   21.996412
  38 H     1.0000    0     1.008   26.078221   28.326995   20.144481
  39 H     1.0000    0     1.008   24.226289   29.479728   21.977515
  40 O     8.0000    0    15.999   22.620022   16.742974   14.853247
  41 H     1.0000    0     1.008   24.131803   17.177611   15.798110
  42 H     1.0000    0     1.008   21.694056   15.514652   15.798110
  43 O     8.0000    0    15.999   24.018419   23.716063   28.686043
  44 H     1.0000    0     1.008   24.868796   24.453056   27.249851
  45 H     1.0000    0     1.008   22.676714   24.755412   29.026193
  46 O     8.0000    0    15.999   19.275207   13.039110   17.574453
  47 H     1.0000    0     1.008   17.536659   12.925727   17.290994
  48 H     1.0000    0     1.008   19.634255   11.546227   18.557111
  49 O     8.0000    0    15.999   23.262529   25.227844   13.511542
  50 H     1.0000    0     1.008   21.958618   25.908145   12.472192
  51 H     1.0000    0     1.008   24.056214   26.512858   14.456405
  52 O     8.0000    0    15.999   19.105131    9.316350   25.945940
  53 H     1.0000    0     1.008   18.368138   10.469083   27.136467
  54 H     1.0000    0     1.008   18.897261    7.747877   26.985289
  55 O     8.0000    0    15.999   23.621577   15.004426   25.908145
  56 H     1.0000    0     1.008   22.922378   15.817008   24.471953
  57 H     1.0000    0     1.008   25.171152   14.154049   25.549097
  58 O     8.0000    0    15.999   19.369693   21.221624    9.316350
  59 H     1.0000    0     1.008   21.013755   22.034207    8.919507
  60 H     1.0000    0     1.008   18.198063   21.712953    7.993542
  61 O     8.0000    0    15.999   14.229638   20.654707   24.793207
  62 H     1.0000    0     1.008   14.418610   22.279871   25.511303
  63 H     1.0000    0     1.008   13.095802   20.957063   23.262529
  64 O     8.0000    0    15.999   15.609138   28.704940   15.533549
  65 H     1.0000    0     1.008   16.572898   28.761632   14.021768
  66 H     1.0000    0     1.008   13.983973   29.385241   14.966631
  67 O     8.0000    0    15.999    9.902165   23.886138   13.341467
  68 H     1.0000    0     1.008    9.429733   22.147590   13.360364
  69 H     1.0000    0     1.008    8.352590   24.585337   14.002871
  70 O     8.0000    0    15.999   29.385241   21.316111   21.769645
  71 H     1.0000    0     1.008   28.213611   22.431049   22.714508
  72 H     1.0000    0     1.008   28.704940   21.353905   20.087789
  73 O     8.0000    0    15.999   11.036001   21.467289   20.560220
  74 H     1.0000    0     1.008   12.018658   22.638919   19.634255
  75 H     1.0000    0     1.008    9.467528   22.393255   20.805885
  76 O     8.0000    0    15.999   18.103576   29.706495   25.435714
  77 H     1.0000    0     1.008   17.177611   29.045091   23.999522
  78 H     1.0000    0     1.008   19.539768   30.500180   24.755412
  79 O     8.0000    0    15.999   27.155365   10.828131   19.539768
  80 H     1.0000    0     1.008   27.703385   10.979309   21.259419
  81 H     1.0000    0     1.008   28.629351   10.431288   18.689391
  82 O     8.0000    0    15.999   19.898816   17.498864   32.125344
  83 H     1.0000    0     1.008   18.708289   18.897261   31.785194
  84 H     1.0000    0     1.008   21.259419   17.876809   30.972611
  85 O     8.0000    0    15.999   28.251406   19.539768   16.459515
  86 H     1.0000    0     1.008   30.027748   19.747638   16.346131
  87 H     1.0000    0     1.008   28.062433   17.801220   17.196508
  88 O     8.0000    0    15.999   15.306782   29.555317   20.711398
  89 H     1.0000    0     1.008   15.136706   28.837221   18.972850
  90 H     1.0000    0     1.008   14.985528   31.426146   20.786987
  91 O     8.0000    0    15.999   20.749193   30.708050   19.218515
  92 H     1.0000    0     1.008   20.522426   28.912810   19.029542
  93 H     1.0000    0     1.008   19.275207   31.331659   19.993302
  94 O     8.0000    0    15.999   14.513097   13.228083   23.224734
  95 H     1.0000    0     1.008   13.776104   11.508432   23.527090
  96 H     1.0000    0     1.008   15.817008   13.662720   24.377467
  97 O     8.0000    0    15.999   14.002871   18.519316   15.287884
  98 H     1.0000    0     1.008   13.001316   19.747638   16.157158
  99 H     1.0000    0     1.008   15.684727   19.086234   14.815453
 100 O     8.0000    0    15.999   20.012200   15.854802    9.505322
 101 H     1.0000    0     1.008   21.221624   15.798110   10.847028
 102 H     1.0000    0     1.008   19.483076   17.687837    9.694295
 103 Q     0.6645    0     0.000   13.076905   26.304988   25.208947
 104 Q     0.6645    0     0.000   15.136706   27.155365   27.174262
 105 Q    -1.3290    0     0.000   14.116254   26.116015   26.475063
 106 Q     0.6645    0     0.000   14.135151   39.986605   17.366583
 107 Q     0.6645    0     0.000   15.835905   37.794523   17.328789
 108 Q    -1.3290    0     0.000   14.456405   38.474824   17.404378
 109 Q     0.6645    0     0.000    9.637603   12.982419   30.915920
 110 Q     0.6645    0     0.000    8.673843   10.563569   31.955269
 111 Q    -1.3290    0     0.000    9.524220   11.413946   30.953714
 112 Q     0.6645    0     0.000    9.221864   16.516206   33.807201
 113 Q     0.6645    0     0.000    9.713192   17.253200   31.180481
 114 Q    -1.3290    0     0.000    8.825021   16.610693   32.276522
 115 Q     0.6645    0     0.000   34.033968   17.631145   22.903481
 116 Q     0.6645    0     0.000   36.207153   16.459515   21.675159
 117 Q    -1.3290    0     0.000   35.356776   17.706734   22.147590
 118 Q     0.6645    0     0.000    1.058247   24.736515   19.331898
 119 Q     0.6645    0     0.000    3.571582   25.605789   20.087789
 120 Q    -1.3290    0     0.000    2.362158   25.511303   19.086234
 121 Q     0.6645    0     0.000   33.656022   20.579118   34.109557
 122 Q     0.6645    0     0.000   30.632461   19.879919   34.374118
 123 Q    -1.3290    0     0.000   32.144242   20.031097   33.656022
 124 Q     0.6645    0     0.000   32.106447   10.658055   15.722521
 125 Q     0.6645    0     0.000   30.481283    8.333692   14.513097
 126 Q    -1.3290    0     0.000   31.256070    9.240761   15.665830
 127 Q     0.6645    0     0.000   22.979070   15.835905    3.363713
 128 Q     0.6645    0     0.000   21.996412   15.363473    6.179404
 129 Q    -1.3290    0     0.000   22.506638   14.966631    4.648726
 130 Q     0.6645    0     0.000   13.795001    4.648726   19.010645
 131 Q     0.6645    0     0.000   16.024878    6.368377   20.125583
 132 Q    -1.3290    0     0.000   15.212295    5.026672   19.728741
 133 Q     0.6645    0     0.000   18.594905   35.715824   28.289200
 134 Q     0.6645    0     0.000   17.650042   34.959933   30.934817
 135 Q    -1.3290    0     0.000   18.519316   34.808755   29.593111
 136 Q     0.6645    0     0.000   30.065543   18.481522   23.262529
 137 Q     0.6645    0     0.000   30.915920   17.839015   25.889248
 138 Q    -1.3290    0     0.000   30.953714   17.668939   24.320775
 139 Q     0.6645    0     0.000   19.747638   -0.623610   12.831240
 140 Q     0.6645    0     0.000   18.594905    1.662959   11.395049
 141 Q    -1.3290    0     0.000   18.953953    0.812582   12.680062
 142 Q     0.6645    0     0.000   35.640235   31.350557   13.606028
 143 Q     0.6645    0     0.000   36.925249   31.520632   16.119364
 144 Q    -1.3290    0     0.000   35.885899   31.974166   15.023323
 145 Q     0.6645    0     0.000   39.911016   24.944385   28.723837
 146 Q     0.6645    0     0.000   37.246502   23.848344   29.158474
 147 Q    -1.3290    0     0.000   38.739386   23.753858   28.629351
 148 Q     0.6645    0     0.000    5.480206   20.352350   10.960412
 149 Q     0.6645    0     0.000    3.949528   22.468844   10.242316
 150 Q    -1.3290    0     0.000    4.592035   21.089344   10.015549
 151 Q     0.6645    0     0.000   19.086234   30.065543    3.968425
 152 Q     0.6645    0     0.000   20.616912   31.350557    6.160507
 153 Q    -1.3290    0     0.000   19.842124   30.160029    5.442411
 154 Q     0.6645    0     0.000   35.885899   13.341467    8.862816
 155 Q     0.6645    0     0.000   34.563091   13.681617   11.470638
 156 Q    -1.3290    0     0.000   34.752064   13.832795    9.864370
 157 Q     0.6645    0     0.000    4.951082   32.503290   16.138261
 158 Q     0.6645    0     0.000    7.237651   32.049755   17.820117
 159 Q    -1.3290    0     0.000    6.500658   32.125344   16.440617
 160 Q     0.6645    0     0.000   21.486186   12.339912   35.300084
 161 Q     0.6645    0     0.000   23.470399   10.072240   35.867002
 162 Q    -1.3290    0     0.000   22.412152   10.941514   34.959933
 163 Q     0.6645    0     0.000    7.936850   30.859228   11.130487
 164 Q     0.6645    0     0.000    6.651836   29.744289    8.938405
 165 Q    -1.3290    0     0.000    6.689631   30.462385   10.299007
 166 Q     0.6645    0     0.000    1.814137   18.859467   20.144481
 167 Q     0.6645    0     0.000   -0.075589   18.046885   18.160268
 168 Q    -1.3290    0     0.000    0.396842   18.953953   19.331898
 169 Q     0.6645    0     0.000   23.281426    8.106925   28.742734
 170 Q     0.6645    0     0.000   23.149145    9.108480   31.652913
 171 Q    -1.3290    0     0.000   23.545988    8.069131   30.405693
 172 Q     0.6645    0     0.000    2.777897   16.742974   31.615118
 173 Q     0.6645    0     0.000    5.045569   16.005980   33.032413
 174 Q    -1.3290    0     0.000    3.477096   16.176056   32.862337
 175 Q     0.6645    0     0.000   12.831240    4.346370   12.188734
 176 Q     0.6645    0     0.000   14.928836    2.418849   11.716302
 177 Q    -1.3290    0     0.000   13.606028    3.193637   11.432843
 178 Q     0.6645    0     0.000   19.142926    8.995096   22.317666
 179 Q     0.6645    0     0.000   20.975960    7.880158   20.579118
 180 Q    -1.3290    0     0.000   19.709844    8.636048   20.881474
 181 Q     0.6645    0     0.000   25.133358   20.144481    9.108480
 182 Q     0.6645    0     0.000   25.454611   18.632700    6.803014
 183 Q    -1.3290    0     0.000   24.604234   19.407487    7.823466
 184 Q     0.6645    0     0.000   34.733166   36.509509   21.920823
 185 Q     0.6645    0     0.000   35.111112   35.961488   19.199618
 186 Q    -1.3290    0     0.000   34.789858   35.583543   20.673604
 187 Q     0.6645    0     0.000   31.104892    5.782562   20.824782
 188 Q     0.6645    0     0.000   31.955269    7.105370   18.405933
 189 Q    -1.3290    0     0.000   32.163139    6.311685   19.747638
 190 Q     0.6645    0     0.000   30.915920   33.126899   21.523981
 191 Q     0.6645    0     0.000   29.120680   30.821433   21.750748
 192 Q    -1.3290    0     0.000   30.500180   31.558426   21.580672
 193 Q     0.6645    0     0.000   12.226528    2.664514   26.739625
[...]
 353   Q   :    0.255155704    0.025825273   -0.087983151
 354   Q   :   -0.191355936    0.183931879   -0.075010901
 355   Q   :   -0.067628440   -0.208796176    0.160882103
 356   Q   :   -0.132560337    0.163782960   -0.196847135
 357   Q   :   -0.101542429   -0.194381708    0.151526635
 358   Q   :    0.230953991    0.030445095    0.051925665
 359   Q   :    0.007331655   -0.255029355   -0.032644106
 360   Q   :   -0.008369150    0.148921000    0.206137677
 361   Q   :   -0.016536468    0.102350954   -0.172185744
 362   Q   :    0.227208373    0.019285542   -0.173330854
 363   Q   :   -0.104213785   -0.173222732    0.097440448
 364   Q   :   -0.110034068    0.163934087    0.068220108
 365   Q   :    0.147171914    0.059796258    0.216036084
 366   Q   :   -0.220102774    0.115783776   -0.089407633
 367   Q   :    0.073195008   -0.177121735   -0.127495491
 368   Q   :    0.132949306    0.273299271   -0.037334260
 369   Q   :   -0.097131042   -0.087737995    0.217229007
 370   Q   :   -0.036424379   -0.187620263   -0.180970810
 371   Q   :   -0.212916268    0.164621193   -0.108906106
 372   Q   :    0.272321089    0.027485415   -0.015198169
 373   Q   :   -0.056251583   -0.195294998    0.123330682
 374   Q   :   -0.110959207    0.227516795    0.085896866
 375   Q   :    0.218792855    0.002117105   -0.208413529
 376   Q   :   -0.112825272   -0.237965870    0.111695074
 377   Q   :    0.269402935   -0.096756692    0.050827253
 378   Q   :   -0.101581100    0.237044992    0.163032213
 379   Q   :   -0.166904022   -0.133418305   -0.207616932
 380   Q   :    0.028110288   -0.107174235   -0.257769187
 381   Q   :    0.184353116   -0.000796549    0.216165473
 382   Q   :   -0.212103984    0.111244146    0.039719257
 383   Q   :   -0.170895948    0.238980995   -0.030357681
 384   Q   :    0.164480324   -0.139408273   -0.180093863
 385   Q   :   -0.000384491   -0.107409919    0.203997423
 386   Q   :    0.053242149   -0.306786737   -0.070978866
 387   Q   :   -0.219734569    0.145031206   -0.140247227
 388   Q   :    0.169768161    0.156504975    0.215765946
 389   Q   :   -0.261736101    0.054379513   -0.087107854
 390   Q   :    0.222087663    0.130751334   -0.061517112
 391   Q   :    0.028959607   -0.174746850    0.151063269
 392   Q   :   -0.116830513   -0.150569691    0.177971204
 393   Q   :    0.179514348   -0.053413557   -0.194478164
 394   Q   :   -0.065227077    0.203351855    0.014153265
 395   Q   :   -0.120670540    0.237378345    0.163083081
 396   Q   :    0.037841475    0.025629113   -0.287190135
 397   Q   :    0.091056362   -0.268210369    0.133942045
 398   Q   :   -0.215963551    0.121500732    0.062085507
 399   Q   :    0.227155851   -0.007082630    0.164155974
 400   Q   :    0.006764190   -0.128945149   -0.230089002
 401   Q   :   -0.064130915    0.289519854   -0.147857043
 402   Q   :    0.271603686   -0.149966545   -0.073179662
 403   Q   :   -0.200302858   -0.142487449    0.224705846
 404   Q   :    0.038162668   -0.082633499   -0.271535663
 405   Q   :    0.168048739    0.054043431    0.193989276
 406   Q   :   -0.209458389    0.032204187    0.077022809
 407   Q   :   -0.179355257    0.101037417    0.170494884
 408   Q   :   -0.031727847   -0.216604460   -0.176824490
 409   Q   :    0.211420110    0.111560704    0.000579539
 410   Q   :   -0.209816263   -0.114057449   -0.135382648
 411   Q   :    0.193536853    0.112302221   -0.120058409
 412   Q   :    0.012266335   -0.000671933    0.257493055
 413   Q   :    0.081233640    0.142448478   -0.259137176
 414   Q   :    0.106069395    0.088569894    0.248232766
 415   Q   :   -0.187806013   -0.221748054   -0.000407109
 416   Q   :    0.039430818    0.067292530    0.266860247
 417   Q   :   -0.093919991    0.191107247   -0.203067009
 418   Q   :    0.049813884   -0.265374350   -0.066735069
 419   Q   :   -0.190258617    0.010766552   -0.209334411
 420   Q   :   -0.004996459    0.145873859    0.244246130
 421   Q   :    0.211950947   -0.151865478   -0.032897909
 422   Q   :   -0.041078558    0.149233975   -0.224326451
 423   Q   :   -0.046742844    0.094710947    0.257823815
 424   Q   :    0.085122243   -0.238397289   -0.026452089
 425   Q   :    0.268593784    0.145536142    0.010678156
 426   Q   :   -0.048584956   -0.239637581   -0.192915508
 427   Q   :   -0.225967565    0.099313514    0.184974447
 428   Q   :   -0.190223496   -0.204856246    0.148116759
 429   Q   :    0.263212072    0.089862133    0.102362375
 430   Q   :   -0.086535640    0.109505267   -0.249645423
 431   Q   :    0.002959176   -0.178991285    0.182012753
 432   Q   :   -0.141025985    0.217901772   -0.018530296
 433   Q   :    0.131180847   -0.052312850   -0.162104489
 434   Q   :    0.033226008   -0.093282972   -0.282563762
 435   Q   :   -0.099418473   -0.184370035    0.208080241
 436   Q   :    0.075382331    0.284266208    0.073123397
 437   Q   :    0.206486667   -0.176041123    0.116431779
 438   Q   :    0.045493514    0.267355051   -0.090093861
 439   Q   :   -0.254670691   -0.094236547   -0.030645198
 440   Q   :   -0.130397535    0.007841065   -0.228679591
 441   Q   :    0.182090630   -0.234768321    0.095349245
 442   Q   :   -0.044580001    0.218231105    0.127854156
 443   Q   :   -0.017700062   -0.146917174   -0.281527547
 444   Q   :   -0.041843043    0.307301505   -0.004857983
 445   Q   :    0.053254286   -0.161586953    0.277970054
 446   Q   :   -0.240705351    0.004662207   -0.120265337
 447   Q   :    0.083802472   -0.196697716    0.168721007
 448   Q   :    0.164191414    0.191908145   -0.058888037
 449   Q   :    0.047428402    0.160504208   -0.202947471
 450   Q   :   -0.219564837   -0.072777389    0.121334477
 451   Q   :    0.169681871   -0.086733776    0.068771351
 452   Q   :    0.259370490    0.074848471   -0.073867294
 453   Q   :   -0.138616622   -0.188432831   -0.053688034
 454   Q   :   -0.117275243    0.113484118    0.115918403
 455   Q   :   -0.129770959   -0.055071552    0.209786262
 456   Q   :   -0.088216364    0.089174805   -0.246893185
 457   Q   :    0.223110295   -0.030015048    0.022120159
 458   Q   :    0.177954078   -0.211924229    0.108678412
 459   Q   :    0.064285300    0.279219276    0.039812833
 460   Q   :   -0.247266635   -0.060775051   -0.140755530
 461   Q   :   -0.052685467   -0.141430780   -0.232581437
 462   Q   :   -0.195701542    0.058912960    0.213300791
 463   Q   :    0.236347036    0.083850683    0.011535350
 464   Q   :   -0.188662377    0.036214607   -0.219051394
 465   Q   :    0.250222121   -0.106564427   -0.014568447
 466   Q   :   -0.053142416    0.080969652    0.236328607
 467   Q   :   -0.154015643    0.205003540    0.049961742
 468   Q   :   -0.017763395   -0.261995034    0.094135112
 469   Q   :    0.169767515    0.052186434   -0.141029916
 470   Q   :    0.191436110   -0.218570591   -0.005326998
 471   Q   :   -0.134532545    0.062258144    0.216504008
 472   Q   :   -0.053985234    0.161806733   -0.202288162
 473   Q   :    0.073083122    0.041804435    0.263283015
 474   Q   :    0.183795746   -0.122309239   -0.186496522
 475   Q   :   -0.248848827    0.082081271   -0.073135037
 476   Q   :    0.120278210    0.192659252   -0.181623523
 477   Q   :   -0.129008151    0.033853986    0.248060404
 478   Q   :    0.008825340   -0.223478396   -0.064856108
 479   Q   :   -0.137196584   -0.033501016    0.191476778
 480   Q   :   -0.030949157    0.132561765   -0.207646105
 481   Q   :    0.158631690   -0.096899333    0.022194816
 482   Q   :   -0.088627360   -0.228342248   -0.178051233
 483   Q   :    0.242162694    0.126992077   -0.026209739
 484   Q   :   -0.150348032    0.101014147    0.215247130
 485   Q   :    0.095639617    0.071895230    0.270357147
 486   Q   :    0.182455415   -0.019464987   -0.203344747
 487   Q   :   -0.271593461   -0.053363603   -0.070191264
 488   Q   :   -0.005364702   -0.113888342    0.240936433
 489   Q   :    0.235975142    0.097279666   -0.145698039
 490   Q   :   -0.229613823    0.020124155   -0.096796276
 491   Q   :   -0.086346015    0.051786549    0.296694993
 492   Q   :    0.135340928   -0.254020413   -0.081734750
 493   Q   :   -0.054416538    0.207289708   -0.218059776
 494   Q   :    0.158171709    0.232342799   -0.022559687
 495   Q   :   -0.302364679   -0.008690302   -0.039663528
 496   Q   :    0.135620082   -0.226763546    0.060459556
 497   Q   :   -0.109462841   -0.137966159   -0.249273767
 498   Q   :   -0.157617871    0.026421245    0.214478243
 499   Q   :    0.259470590    0.112850495    0.044467748
 500   Q   :    0.147775188    0.121844764    0.140856153
 501   Q   :   -0.257598036    0.004473484   -0.008897638
 502   Q   :    0.106296922   -0.129745419   -0.134833029
 503   Q   :   -0.069623228   -0.201657314    0.119347815
 504   Q   :    0.217301522    0.109325703    0.001368889
 505   Q   :   -0.148029222    0.085907164   -0.122205790
 506   Q   :    0.200078806   -0.048149203    0.126669383
 507   Q   :   -0.277394808   -0.040486408    0.085630157
 508   Q   :    0.071262366    0.102512131   -0.221126476
 509   Q   :   -0.183118144   -0.170518356   -0.148189774
 510   Q   :   -0.038191599    0.285467431    0.022404416
 511   Q   :    0.215692082   -0.112446909    0.144755956
 512   Q   :   -0.055441077    0.225453886   -0.153591736
 513   Q   :    0.053527530    0.007146878    0.287138361
 514   Q   :   -0.004856446   -0.221560753   -0.133935762
 515   Q   :   -0.104262884    0.240861419   -0.049211852
 516   Q   :   -0.018959162   -0.192625654   -0.138557471
 517   Q   :    0.129233070   -0.049948071    0.184824121
 518   Q   :    0.152981190   -0.077869267   -0.259774496
 519   Q   :   -0.259065967    0.142776347   -0.009405130
 520   Q   :    0.112644053   -0.069501366    0.270576726
 521   Q   :    0.194188177    0.186373821   -0.128731756
 522   Q   :    0.004379192   -0.278020526   -0.046290364
 523   Q   :   -0.191644220    0.098212463    0.180874371
 524   Q   :    0.199168056   -0.180339090    0.053132046
 525   Q   :   -0.172772424    0.080625376    0.161196723
 526   Q   :   -0.026714546    0.092357776   -0.218248157
 527   Q   :    0.029388680   -0.061554990   -0.282520067
 528   Q   :   -0.183265408    0.191377937    0.107847014
 529   Q   :    0.151382946   -0.122355212    0.174089245
 530   Q   :    0.074190849    0.251527703   -0.084534888
 531   Q   :    0.147359166   -0.190190076    0.017505495
 532   Q   :   -0.210101943   -0.045985138    0.057662359
 533   Q   :    0.069755587    0.275242745   -0.012024602
 534   Q   :    0.088473265   -0.189187302   -0.149005215
 535   Q   :   -0.152638393   -0.079483820    0.148595560
 536   Q   :   -0.002929186    0.268451805    0.093364659
 537   Q   :    0.247316903   -0.194255460    0.088332827
 538   Q   :   -0.231955929   -0.078673533   -0.182120656
 539   Q   :   -0.299476297    0.085417237   -0.044535112
 540   Q   :    0.169280677   -0.061453199   -0.192273076
 541   Q   :    0.128649843   -0.015791254    0.241460906
 542   Q   :   -0.007355679   -0.057563057    0.260437939
 543   Q   :   -0.060706546    0.219885905   -0.139900590
 544   Q   :    0.053815557   -0.162903690   -0.112445607
 545   Q   :   -0.042145407    0.281090831    0.035451105
 546   Q   :    0.242723198   -0.119940840    0.068994411
 547   Q   :   -0.196421723   -0.169636098   -0.095110623
 548   Q   :   -0.020929283   -0.137810991    0.253160025
 549   Q   :    0.183540244    0.146853215   -0.083748321
 550   Q   :   -0.172818696   -0.011240352   -0.166270440
 551   Q   :   -0.077711852    0.267862199   -0.006330498
 552   Q   :    0.282468981   -0.090609981   -0.045246593
 553   Q   :   -0.203009798   -0.172768906    0.053655126
 554   Q   :   -0.228692439   -0.148482663    0.018967410
 555   Q   :    0.031949640    0.270314836   -0.046115357
 556   Q   :    0.201034617   -0.118301376    0.021027258
 557   Q   :   -0.004298214    0.117998846   -0.262000172
 558   Q   :    0.110343233    0.110649987    0.234045082
 559   Q   :   -0.102057823   -0.225384702    0.022537693
 560   Q   :    0.039850331   -0.033594203    0.302599907
 561   Q   :   -0.237948366    0.046282304   -0.121274673
 562   Q   :    0.197675057   -0.008985423   -0.179862502
 563   Q   :    0.227466423    0.135683979    0.059494886
 564   Q   :   -0.198961112   -0.059460852    0.188107706
 565   Q   :   -0.027596799   -0.077491272   -0.254003282
 566   Q   :   -0.147704480    0.045976826   -0.226707100
 567   Q   :    0.250159496   -0.169030679    0.008548671
 568   Q   :   -0.104551721    0.119532343    0.228038459
 569   Q   :   -0.167591461   -0.194906291    0.096389490
 570   Q   :    0.172697783   -0.048198525   -0.184139916
 571   Q   :   -0.015174541    0.235070554    0.088920843
 572   Q   :   -0.088136289   -0.125538902    0.201151740
 573   Q   :    0.054963612    0.286498191   -0.017484843
 574   Q   :    0.023681306   -0.146123670   -0.189852789
 575   Q   :   -0.093781248    0.209255541   -0.174230497
 576   Q   :    0.111697288    0.024758994    0.245168853
 577   Q   :   -0.014104816   -0.233766559   -0.068414185
 578   Q   :   -0.249223273   -0.090498911    0.157452107
 579   Q   :    0.014810392    0.231877336   -0.208474893
 580   Q   :    0.237695954   -0.136801824    0.052624038
 581   Q   :    0.240623959   -0.039044225    0.127347469
 582   Q   :   -0.051663986    0.020689969   -0.258997926
 583   Q   :   -0.188483432    0.023012498    0.137939005
 584   Q   :   -0.172497013    0.123934273    0.180721111
 585   Q   :   -0.065141925   -0.208115363   -0.121308245
 586   Q   :    0.239123333    0.101166438   -0.060464124
 587   Q   :    0.282422485    0.094776278    0.033357066
 588   Q   :   -0.114789569   -0.098962915   -0.253498846
 589   Q   :   -0.168334281   -0.010898311    0.219985402
 590   Q   :    0.259105901    0.036656649    0.007685372
 591   Q   :   -0.164598201   -0.198316992   -0.177317494
 592   Q   :   -0.098997675    0.159136579    0.164161972
 593   Q   :    0.186432639    0.131323496    0.173601531
 594   Q   :   -0.285532459    0.058839868   -0.019481004
 595   Q   :    0.100179532   -0.187491991   -0.158501472
 596   Q   :   -0.269226176    0.090250743    0.014384936
 597   Q   :    0.056376643   -0.316533466    0.004308853
 598   Q   :    0.218373816    0.222324841   -0.028323056
 599   Q   :   -0.001725248   -0.041142976    0.279206467
 600   Q   :    0.211578286    0.109889737   -0.153495105
 601   Q   :   -0.202031792   -0.075314864   -0.131223742
 602   Q   :    0.101181522    0.242511137    0.197788107
 603   Q   :   -0.269322047    0.011701211   -0.085324936
 604   Q   :    0.178134166   -0.253187889   -0.102516064
 605   Q   :    0.003091750    0.101519371   -0.278143935
 606   Q   :   -0.000082193   -0.219620160    0.082265015
 607   Q   :   -0.012609049    0.122807304    0.188847961
 608   Q   :   -0.045930679   -0.246738152    0.037319305
 609   Q   :   -0.147804425    0.185335030   -0.173647425
 610   Q   :    0.182543363    0.060320425    0.130797977
 611   Q   :   -0.196231514   -0.167470206    0.051467032
 612   Q   :    0.176026140    0.142937492    0.177683286
 613   Q   :    0.033676370    0.030624969   -0.235415641
 614   Q   :   -0.018072844    0.199264845   -0.198428833
 615   Q   :    0.095294532   -0.277758515   -0.040406317
 616   Q   :   -0.076206929    0.074642032    0.239615778
 617   Q   :    0.308184510    0.009120445    0.062112800
 618   Q   :   -0.111911089    0.030518444   -0.240194327
 619   Q   :   -0.189518328   -0.036846994    0.184797148
 620   Q   :    0.053931679    0.010006671    0.292523808
 621   Q   :   -0.245715351   -0.089403401   -0.100552256
 622   Q   :    0.177288148    0.074776566   -0.191670258
 623   Q   :   -0.039120349   -0.278299106   -0.002867160
 624   Q   :    0.070302434    0.152766117    0.220990182
 625   Q   :   -0.032608236    0.126886557   -0.210017166
 626   Q   :    0.073520003    0.267025616   -0.027510415
 627   Q   :    0.060513879   -0.196605599   -0.206524210
 628   Q   :   -0.134642223   -0.066522884    0.240247312
 629   Q   :    0.193016806    0.185388785    0.124563865
 630   Q   :   -0.188683803   -0.101013521    0.100831497
 631   Q   :   -0.003800217   -0.074126066   -0.213631336
 632   Q   :   -0.222004690    0.154561970    0.115668166
 633   Q   :   -0.043768407   -0.234394777   -0.142361879
 634   Q   :    0.267181924    0.071211508    0.022443268
 635   Q   :   -0.164408772   -0.222467411    0.068556072
 636   Q   :    0.139400596    0.138477347    0.190561045
 637   Q   :    0.024519029    0.082559340   -0.263508860
 638   Q   :   -0.250039559    0.016704843    0.113088219
 639   Q   :    0.200786611   -0.163021498    0.106887473
 640   Q   :    0.052636256    0.141505889   -0.223954763
 641   Q   :    0.025891130   -0.183458000    0.253340615
 642   Q   :    0.224012289    0.152332051   -0.083296842
 643   Q   :   -0.251771278    0.025725043   -0.159998172

Difference to translation invariance:
           :   -0.0003854213    0.0005835770    0.0010645927

Difference to rotation invariance:
           :    0.0124906417   -0.0330367668    0.0179150359

Norm of the cartesian gradient     ...    6.4548800524
RMS gradient                       ...    0.1469677558
MAX gradient                       ...    0.3261740630

-------
TIMINGS
-------

Total SCF gradient time            ...      190.322 sec

One electron gradient       ....      25.545 sec  ( 13.4%)
RI-J Coulomb gradient       ....       9.948 sec  (  5.2%)
COSX gradient               ....     118.215 sec  ( 62.1%)
XC gradient                 ....      14.755 sec  (  7.8%)

Maximum memory used throughout the entire SCFGRAD-calculation: 762.7 MB

                            ***************************************
                            *     ORCA property calculations      *
                            ***************************************

                                    ---------------------
                                    Active property flags
                                    ---------------------
   (+) Dipole Moment


------------------------------------------------------------------------------
                       ORCA ELECTRIC PROPERTIES CALCULATION
------------------------------------------------------------------------------

Dipole Moment Calculation                       ... on
Quadrupole Moment Calculation                   ... off
Polarizability Calculation                      ... off
GBWName                                         ... final046.orca.gbw
Electron density                                ... final046.orca.scfp
The origin for moment calculation is the CENTER OF MASS  = (20.483674, 20.844048 20.627698)

-------------
DIPOLE MOMENT
-------------
                                X             Y             Z
Electronic contribution:      0.32065      -0.52693      -2.48474
Nuclear contribution   :      5.22556      23.51352       1.75547
                        -----------------------------------------
Total Dipole Moment    :      5.54621      22.98659      -0.72927
                        -----------------------------------------
Magnitude (a.u.)       :     23.65747
Magnitude (Debye)      :     60.13250



--------------------
Rotational spectrum 
--------------------
 
Rotational constants in cm-1:     0.001884     0.001699     0.001448 
Rotational constants in MHz :    56.468706    50.935532    43.406766 

 Dipole components along the rotational axes: 
x,y,z [a.u.] :     5.777185    22.543189    -4.254933 
x,y,z [Debye]:    14.684438    57.300233   -10.815181 

 

Timings for individual modules:

Sum of individual times         ...      812.441 sec (=  13.541 min)
GTO integral calculation        ...       12.457 sec (=   0.208 min)   1.5 %
SCF iterations                  ...      605.456 sec (=  10.091 min)  74.5 %
SCF Gradient evaluation         ...      194.528 sec (=   3.242 min)  23.9 %
                             ****ORCA TERMINATED NORMALLY****
TOTAL RUN TIME: 0 days 0 hours 13 minutes 40 seconds 514 msec
