
                                 *****************
                                 * O   R   C   A *
                                 *****************

                                            #,                                       
                                            ###                                      
                                            ####                                     
                                            #####                                    
                                            ######                                   
                                           ########,                                 
                                     ,,################,,,,,                         
                               ,,#################################,,                 
                          ,,##########################################,,             
                       ,#########################################, ''#####,          
                    ,#############################################,,   '####,        
                  ,##################################################,,,,####,       
                ,###########''''           ''''###############################       
              ,#####''   ,,,,##########,,,,          '''####'''          '####       
            ,##' ,,,,###########################,,,                        '##       
           ' ,,###''''                  '''############,,,                           
         ,,##''                                '''############,,,,        ,,,,,,###''
      ,#''                                            '''#######################'''  
     '                                                          ''''####''''         
             ,#######,   #######,   ,#######,      ##                                
            ,#'     '#,  ##    ##  ,#'     '#,    #''#        ######   ,####,        
            ##       ##  ##   ,#'  ##            #'  '#       #        #'  '#        
            ##       ##  #######   ##           ,######,      #####,   #    #        
            '#,     ,#'  ##    ##  '#,     ,#' ,#      #,         ##   #,  ,#        
             '#######'   ##     ##  '#######'  #'      '#     #####' # '####'        



                  #######################################################
                  #                        -***-                        #
                  #          Department of theory and spectroscopy      #
                  #    Directorship and core code : Frank Neese         #
                  #        Max Planck Institute fuer Kohlenforschung    #
                  #                Kaiser Wilhelm Platz 1               #
                  #                 D-45470 Muelheim/Ruhr               #
                  #                      Germany                        #
                  #                                                     #
                  #                  All rights reserved                #
                  #                        -***-                        #
                  #######################################################


                         Program Version 5.0.3 -  RELEASE  -


 With contributions from (in alphabetic order):
   Daniel Aravena         : Magnetic Suceptibility
   Michael Atanasov       : Ab Initio Ligand Field Theory (pilot matlab implementation)
   Alexander A. Auer      : GIAO ZORA, VPT2 properties, NMR spectrum
   Ute Becker             : Parallelization
   Giovanni Bistoni       : ED, misc. LED, open-shell LED, HFLD
   Martin Brehm           : Molecular dynamics
   Dmytro Bykov           : SCF Hessian
   Vijay G. Chilkuri      : MRCI spin determinant printing, contributions to CSF-ICE
   Dipayan Datta          : RHF DLPNO-CCSD density
   Achintya Kumar Dutta   : EOM-CC, STEOM-CC
   Dmitry Ganyushin       : Spin-Orbit,Spin-Spin,Magnetic field MRCI
   Miquel Garcia          : C-PCM and meta-GGA Hessian, CC/C-PCM, Gaussian charge scheme
   Yang Guo               : DLPNO-NEVPT2, F12-NEVPT2, CIM, IAO-localization
   Andreas Hansen         : Spin unrestricted coupled pair/coupled cluster methods
   Benjamin Helmich-Paris : MC-RPA, TRAH-SCF, COSX integrals
   Lee Huntington         : MR-EOM, pCC
   Robert Izsak           : Overlap fitted RIJCOSX, COSX-SCS-MP3, EOM
   Marcus Kettner         : VPT2
   Christian Kollmar      : KDIIS, OOCD, Brueckner-CCSD(T), CCSD density, CASPT2, CASPT2-K
   Simone Kossmann        : Meta GGA functionals, TD-DFT gradient, OOMP2, MP2 Hessian
   Martin Krupicka        : Initial AUTO-CI
   Lucas Lang             : DCDCAS
   Marvin Lechner         : AUTO-CI (C++ implementation), FIC-MRCC
   Dagmar Lenk            : GEPOL surface, SMD
   Dimitrios Liakos       : Extrapolation schemes; Compound Job, initial MDCI parallelization
   Dimitrios Manganas     : Further ROCIS development; embedding schemes
   Dimitrios Pantazis     : SARC Basis sets
   Anastasios Papadopoulos: AUTO-CI, single reference methods and gradients
   Taras Petrenko         : DFT Hessian,TD-DFT gradient, ASA, ECA, R-Raman, ABS, FL, XAS/XES, NRVS
   Peter Pinski           : DLPNO-MP2, DLPNO-MP2 Gradient
   Christoph Reimann      : Effective Core Potentials
   Marius Retegan         : Local ZFS, SOC
   Christoph Riplinger    : Optimizer, TS searches, QM/MM, DLPNO-CCSD(T), (RO)-DLPNO pert. Triples
   Tobias Risthaus        : Range-separated hybrids, TD-DFT gradient, RPA, STAB
   Michael Roemelt        : Original ROCIS implementation
   Masaaki Saitow         : Open-shell DLPNO-CCSD energy and density
   Barbara Sandhoefer     : DKH picture change effects
   Avijit Sen             : IP-ROCIS
   Kantharuban Sivalingam : CASSCF convergence, NEVPT2, FIC-MRCI
   Bernardo de Souza      : ESD, SOC TD-DFT
   Georgi Stoychev        : AutoAux, RI-MP2 NMR, DLPNO-MP2 response
   Willem Van den Heuvel  : Paramagnetic NMR
   Boris Wezisla          : Elementary symmetry handling
   Frank Wennmohs         : Technical directorship


 We gratefully acknowledge several colleagues who have allowed us to
 interface, adapt or use parts of their codes:
   Stefan Grimme, W. Hujo, H. Kruse, P. Pracht,  : VdW corrections, initial TS optimization,
                  C. Bannwarth, S. Ehlert          DFT functionals, gCP, sTDA/sTD-DF
   Ed Valeev, F. Pavosevic, A. Kumar             : LibInt (2-el integral package), F12 methods
   Garnet Chan, S. Sharma, J. Yang, R. Olivares  : DMRG
   Ulf Ekstrom                                   : XCFun DFT Library
   Mihaly Kallay                                 : mrcc  (arbitrary order and MRCC methods)
   Jiri Pittner, Ondrej Demel                    : Mk-CCSD
   Frank Weinhold                                : gennbo (NPA and NBO analysis)
   Christopher J. Cramer and Donald G. Truhlar   : smd solvation model
   Lars Goerigk                                  : TD-DFT with DH, B97 family of functionals
   V. Asgeirsson, H. Jonsson                     : NEB implementation
   FAccTs GmbH                                   : IRC, NEB, NEB-TS, DLPNO-Multilevel, CI-OPT
                                                   MM, QMMM, 2- and 3-layer-ONIOM, Crystal-QMMM,
                                                   LR-CPCM, SF, NACMEs, symmetry and pop. for TD-DFT,
                                                   nearIR, NL-DFT gradient (VV10), updates on ESD,
                                                   ML-optimized integration grids
   S Lehtola, MJT Oliveira, MAL Marques          : LibXC Library
   Liviu Ungur et al                             : ANISO software


 Your calculation uses the libint2 library for the computation of 2-el integrals
 For citations please refer to: http://libint.valeyev.net

 Your ORCA version has been built with support for libXC version: 5.1.0
 For citations please refer to: https://tddft.org/programs/libxc/

 This ORCA versions uses:
   CBLAS   interface :  Fast vector & matrix operations
   LAPACKE interface :  Fast linear algebra routines
   SCALAPACK package :  Parallel linear algebra routines
   Shared memory     :  Shared parallel matrices
   BLAS/LAPACK       :  OpenBLAS 0.3.15  USE64BITINT DYNAMIC_ARCH NO_AFFINITY SkylakeX SINGLE_THREADED
        Core in use  :  SkylakeX
   Copyright (c) 2011-2014, The OpenBLAS Project


================================================================================

----- Orbital basis set information -----
Your calculation utilizes the basis: def2-SVP
   F. Weigend and R. Ahlrichs, Phys. Chem. Chem. Phys. 7, 3297 (2005).

The basis set includes element-specific modifications.

Your calculation utilizes the basis: aug-cc-pVTZ 
    H, B-Ne : Obtained from the ccRepo (grant-hill.group.shef.ac.uk/ccrepo) Feb. 2017
              R. A. Kendall, T. H. Dunning, Jr., R. J. Harrison, J. Chem. Phys. 96, 6796 (1992)
         He : Obtained from the ccRepo (grant-hill.group.shef.ac.uk/ccrepo) Feb. 2017
              D. E. Woon, T. H. Dunning, Jr., J. Chem. Phys. 100, 2975 (1994)
  Li-Be, Na : Obtained from the ccRepo (grant-hill.group.shef.ac.uk/ccrepo) Feb. 2017
              B. P. Prascher, D. E. Woon, K. A. Peterson, T. H. Dunning, Jr., A. K. Wilson, Theor. Chem. Acc. 128, 69 (2011)
         Mg : Obtained from the Peterson Research Group Website (tyr0.chem.wsu.edu/~kipeters) Feb. 2017
              B. P. Prascher, D. E. Woon, K. A. Peterson, T. H. Dunning, Jr., A. K. Wilson, Theor. Chem. Acc. 128, 69 (2011)
      Al-Ar : Obtained from the ccRepo (grant-hill.group.shef.ac.uk/ccrepo) Feb. 2017
              D. E. Woon, T. H. Dunning, Jr., J. Chem. Phys. 98, 1358 (1993)
      Sc-Zn : Obtained from the ccRepo (grant-hill.group.shef.ac.uk/ccrepo) Feb. 2017
              N. B. Balabanov, K. A. Peterson, J. Chem. Phys. 123, 064107 (2005)
              N. B. Balabanov, K. A. Peterson, J. Chem. Phys. 125, 074110 (2006)
      Ga-Kr : Obtained from the ccRepo (grant-hill.group.shef.ac.uk/ccrepo) Feb. 2017
              A. K. Wilson, D. E. Woon, K. A. Peterson, T. H. Dunning, Jr., J. Chem. Phys. 110, 7667 (1999)
     Ag, Au : Obtained from the Peterson Research Group Website (tyr0.chem.wsu.edu/~kipeters) Feb. 2017
              K. A. Peterson, C. Puzzarini, Theor. Chem. Acc. 114, 283 (2005)

Your calculation utilizes the basis: cc-pVTZ 
       H, B-Ne : Obtained from the ccRepo (grant-hill.group.shef.ac.uk/ccrepo) Feb. 2017
                 T. H. Dunning, Jr., J. Chem. Phys. 90, 1007 (1989)
            He : Obtained from the ccRepo (grant-hill.group.shef.ac.uk/ccrepo) Feb. 2017
                 D. E. Woon, T. H. Dunning, Jr., J. Chem. Phys. 100, 2975 (1994)
  Li-Be, Na-Mg : Obtained from the ccRepo (grant-hill.group.shef.ac.uk/ccrepo) Feb. 2017
                 B. P. Prascher, D. E. Woon, K. A. Peterson, T. H. Dunning, Jr., A. K. Wilson, Theor. Chem. Acc. 128, 69 (2011)
         Al-Ar : Obtained from the ccRepo (grant-hill.group.shef.ac.uk/ccrepo) Feb. 2017
                 D. E. Woon, T. H. Dunning, Jr., J. Chem. Phys. 98, 1358 (1993)
            Ca : Obtained from the Peterson Research Group Website (tyr0.chem.wsu.edu/~kipeters) Feb. 2017
                 J. Koput, K. A. Peterson, J. Phys. Chem. 106, 9595 (2002)
         Sc-Zn : Obtained from the ccRepo (grant-hill.group.shef.ac.uk/ccrepo) Feb. 2017
                 N. B. Balabanov, K. A. Peterson, J. Chem. Phys. 123, 064107 (2005)
                 N. B. Balabanov, K. A. Peterson, J. Chem. Phys. 125, 074110 (2006)
         Ga-Kr : Obtained from the ccRepo (grant-hill.group.shef.ac.uk/ccrepo) Feb. 2017
                 A. K. Wilson, D. E. Woon, K. A. Peterson, T. H. Dunning, Jr., J. Chem. Phys. 110, 7667 (1999)
             Y : Obtained from the ccRepo (grant-hill.group.shef.ac.uk/ccrepo) Feb. 2017
                 K. A. Peterson, D. Figgen, M. Dolg, H. Stoll, J. Chem. Phys. 126, 124101 (2007)
        Ag, Au : Obtained from the Peterson Research Group Website (tyr0.chem.wsu.edu/~kipeters) Feb. 2017
                 K. A. Peterson, C. Puzzarini, Theor. Chem. Acc. 114, 283 (2005)

----- AuxJ basis set information -----
Your calculation utilizes the auxiliary basis: def2/J
   F. Weigend, Phys. Chem. Chem. Phys. 8, 1057 (2006).

================================================================================
                                        WARNINGS
                       Please study these warnings very carefully!
================================================================================

WARNING: The globally-selected AuxJ basis set is optimized for use with ECPs
         Make sure a suitable alternative is explicitly given all heavy elements (Z>36)

INFO   : the flag for use of the SHARK integral package has been found!

================================================================================
                                       INPUT FILE
================================================================================
NAME = final071.orca.inp
|  1> ! NoMOPrint PrintBasis #MINIPRINT SMALLPRINT LARGEPRINT
|  2> ! ALLPOP XYZFILE
|  3> #! BP86 3-21G   TightSCF
|  4> ! ENGRAD
|  5> ! B3LYP NormalPNO PModel #DecontractAux
|  6> #! VerySlowConv 
|  7>  %maxcore 5000
|  8>  %scf  maxiter   500  end 
|  9> 
| 10> %pal
| 11>     nprocs 32
| 12> end
| 13> 
| 14> %basis
| 15>     NewGTO O    # New basis for oxygen
| 16>         "aug-cc-pVTZ"
| 17>     end
| 18>     NewGTO C    # New basis for carbon
| 19>         "aug-cc-pVTZ"
| 20>     end
| 21>     NewGTO H    # New basis for hydrogen
| 22>         "cc-pVTZ"
| 23>     end
| 24> end
| 25> 
| 26> * xyz 0   1
| 27>   C  12.83  10.43  10.92  #1
| 28>   H  12.75  10.31  9.89  #2
| 29>   H  12.48  9.48  11.51  #3
| 30>   C  11.81  11.55  11.05  #4
| 31>   H  12.26  12.22  11.81  #5
| 32>   H  11.91  12.19  10.13  #6
| 33>   C  10.3  11.29  11.45  #7
| 34>   H  9.92  12.09  11.99  #8
| 35>   H  10.27  10.38  12.06  #9
| 36>   C  9.33  11.16  10.35  #10
| 37>   H  9.54  10.35  9.63  #11
| 38>   H  9.38  12.11  9.81  #12
| 39>   O  7.95  11.07  10.96  #13
| 40>   H  7.41  10.64  10.33  #14
| 41>   O  14.22  10.66  11.07  #15
| 42>   H  14.28  11.08  12.02  #16
| 43>   O  15.18  11.06  13.49  #17
| 44>   H  15.34  12  13.2  #18
| 45>   H  15.7  10.34  12.97  #19
| 46>   O  11.98  14.17  13.67  #20
| 47>   H  11.54  14.78  13.07  #21
| 48>   H  12.91  14.09  13.36  #22
| 49>   O  10.52  7.73  8.57  #23
| 50>   H  11.02  8.5  8.47  #24
| 51>   H  9.67  7.97  8.18  #25
| 52>   O  8.5  14.08  11.59  #26
| 53>   H  7.98  14.53  12.24  #27
| 54>   H  8.35  13.17  11.94  #28
| 55>   O  13.43  7.49  13.45  #29
| 56>   H  13.25  8.17  14.09  #30
| 57>   H  14.25  7.79  13.01  #31
| 58>   O  16.66  11.74  10.27  #32
| 59>   H  15.73  11.4  10.38  #33
| 60>   H  17.21  11.56  11.08  #34
| 61>   O  15.5  8.44  9.69  #35
| 62>   H  15.22  9.18  10.23  #36
| 63>   H  15.02  8.52  8.85  #37
| 64>   O  12.06  9.84  7.82  #38
| 65>   H  12.13  10.7  7.34  #39
| 66>   H  12.78  9.25  7.56  #40
| 67>   O  15.64  14.32  9.42  #41
| 68>   H  15.97  13.41  9.61  #42
| 69>   H  15.03  14.1  8.67  #43
| 70>   O  14.87  5.95  10.94  #44
| 71>   H  14.04  5.64  11.26  #45
| 72>   H  14.86  6.97  10.75  #46
| 73>   O  15.97  8.15  12.82  #47
| 74>   H  15.93  7.85  13.76  #48
| 75>   H  16.85  8.04  12.5  #49
| 76>   O  6.27  9.53  9.09  #50
| 77>   H  5.91  8.94  9.79  #51
| 78>   H  6.98  9.06  8.56  #52
| 79>   O  13.88  10.14  15.73  #53
| 80>   H  14.16  10.59  16.54  #54
| 81>   H  14.5  10.38  15.04  #55
| 82>   O  4.76  11.72  8.24  #56
| 83>   H  5.12  12.29  7.58  #57
| 84>   H  5.36  10.93  8.37  #58
| 85>   O  10.94  5.67  6.17  #59
| 86>   H  10.83  5.86  7.11  #60
| 87>   H  10.15  6.01  5.7  #61
| 88>   O  14.81  13.74  12.41  #62
| 89>   H  15.14  14.49  12.91  #63
| 90>   H  14.89  13.98  11.48  #64
| 91>   O  7.89  7.85  7.67  #65
| 92>   H  7.82  7.09  8.24  #66
| 93>   H  7.93  7.35  6.8  #67
| 94>   O  13.72  13.16  15.84  #68
| 95>   H  14.59  13.29  16.28  #69
| 96>   H  13.93  12.44  15.19  #70
| 97>   O  18.33  12.1  8.2  #71
| 98>   H  18.15  11.35  7.62  #72
| 99>   H  17.75  11.85  8.9  #73
|100>   O  7.53  12.91  7.84  #74
|101>   H  7.2  13.63  7.31  #75
|102>   H  7.29  12.11  7.37  #76
|103>   O  6.45  15.89  10.49  #77
|104>   H  6.97  15.17  10.18  #78
|105>   H  6.37  16.39  9.65  #79
|106>   O  11.28  8.56  5.05  #80
|107>   H  11.68  7.69  5.24  #81
|108>   H  11.2  9  5.93  #82
|109>   O  12.17  5.5  11.79  #83
|110>   H  12.48  6.1  12.51  #84
|111>   H  11.32  5.76  11.64  #85
|112>   O  10.04  13.97  8.34  #86
|113>   H  10.07  14.19  9.26  #87
|114>   H  9.18  13.54  8.25  #88
|115>   O  11.02  9.67  15.11  #89
|116>   H  10.7  10.56  14.84  #90
|117>   H  11.87  9.82  15.54  #91
|118>   O  7.18  12.04  13.45  #92
|119>   H  7.12  11.27  14.03  #93
|120>   H  7.13  11.62  12.57  #94
|121>   O  9.53  5.98  10.82  #95
|122>   H  8.93  6.28  11.59  #96
|123>   H  9.88  6.75  10.33  #97
|124>   O  9.68  12.4  14.81  #98
|125>   H  10.34  13.02  14.43  #99
|126>   H  8.91  12.52  14.22  #100
|127>   O  10.92  14.97  10.68  #101
|128>   H  10.11  14.83  11.25  #102
|129>   H  11.01  15.97  10.71  #103
|130>   O  7.2  15.94  13.34  #104
|131>   H  6.55  15.57  13.99  #105
|132>   H  6.64  16.26  12.58  #106
|133>   O  18.18  11.28  12.49  #107
|134>   H  18.19  10.83  13.33  #108
|135>   H  19.01  11.08  12.11  #109
|136>   Q  0.6645  15.04$  2.8$  7.87$
|137>   Q  0.6645  14.35$  3.02$  6.52$
|138>   Q  -1.3290  15.01$  2.85$  7.03$
|139>   Q  0.6645  17.76$  7.54$  4.48$
|140>   Q  0.6645  17.81$  6.99$  6.04$
|141>   Q  -1.3290  17.79$  6.99$  5.16$
|142>   Q  0.6645  18.08$  17.79$  18.93$
|143>   Q  0.6645  16.98$  16.92$  18.29$
|144>   Q  -1.3290  17.69$  17.38$  18.31$
|145>   Q  0.6645  3.44$  7.79$  3.1$
|146>   Q  0.6645  2.69$  8.6$  2.16$
|147>   Q  -1.3290  2.96$  8.41$  2.93$
|148>   Q  0.6645  3.7$  12.05$  14.16$
|149>   Q  0.6645  5.17$  11.89$  14.4$
|150>   Q  -1.3290  4.42$  12.21$  14.54$
|151>   Q  0.6645  4.62$  12.97$  9.97$
|152>   Q  0.6645  5.04$  14.5$  10.22$
|153>   Q  -1.3290  4.5$  13.82$  10.11$
|154>   Q  0.6645  2.82$  12.46$  7.79$
|155>   Q  0.6645  1.25$  12.75$  8.07$
|156>   Q  -1.3290  1.98$  12.63$  7.59$
|157>   Q  0.6645  16.13$  10.93$  17.99$
|158>   Q  0.6645  14.9$  10.22$  18.54$
|159>   Q  -1.3290  15.32$  10.87$  18.19$
|160>   Q  0.6645  7.33$  1.31$  12.64$
|161>   Q  0.6645  8.41$  2.03$  11.85$
|162>   Q  -1.3290  7.71$  1.99$  12.32$
|163>   Q  0.6645  4.62$  5.68$  16.03$
|164>   Q  0.6645  4.27$  4.43$  14.94$
|165>   Q  -1.3290  4.73$  4.97$  15.48$
|166>   Q  0.6645  0.06$  4.99$  12.41$
|167>   Q  0.6645  0.09$  6.1$  11.43$
|168>   Q  -1.3290  0.45$  5.59$  11.99$
|169>   Q  0.6645  21.4$  13.08$  10$
|170>   Q  0.6645  22.26$  13.14$  11.33$
|171>   Q  -1.3290  21.56$  13.06$  10.85$
|172>   Q  0.6645  9.37$  17.24$  7.33$
|173>   Q  0.6645  10.04$  16.17$  8.15$
|174>   Q  -1.3290  10.03$  16.82$  7.63$
|175>   Q  0.6645  3.54$  14.37$  14.76$
|176>   Q  0.6645  3.06$  15.78$  14.33$
|177>   Q  -1.3290  2.96$  14.95$  14.6$
|178>   Q  0.6645  7.83$  17.24$  18.29$
|179>   Q  0.6645  9.06$  17.63$  19.18$
|180>   Q  -1.3290  8.49$  17.12$  18.82$
|181>   Q  0.6645  0.56$  10.69$  9.33$
|182>   Q  0.6645  1.76$  9.91$  9.79$
|183>   Q  -1.3290  1.34$  10.59$  9.6$
|184>   Q  0.6645  2.05$  4.35$  9.66$
|185>   Q  0.6645  1.53$  4.26$  11.06$
|186>   Q  -1.3290  1.92$  3.97$  10.4$
|187>   Q  0.6645  15.74$  8.1$  1.84$
|188>   Q  0.6645  16.57$  6.95$  1.23$
|189>   Q  -1.3290  16.36$  7.77$  1.33$
|190>   Q  0.6645  9.86$  3.78$  7.53$
|191>   Q  0.6645  9.97$  3.41$  8.96$
|192>   Q  -1.3290  10.31$  3.61$  8.23$
|193>   Q  0.6645  8.35$  9.97$  4.7$
|194>   Q  0.6645  9.49$  9.09$  4.16$
|195>   Q  -1.3290  8.71$  9.38$  4.2$
|196>   Q  0.6645  5.65$  2.9$  9.73$
|197>   Q  0.6645  6.92$  2.7$  10.52$
|198>   Q  -1.3290  6.48$  2.87$  9.83$
|199>   Q  0.6645  13.41$  8.4$  19.02$
|200>   Q  0.6645  12.47$  9.44$  19.78$
|201>   Q  -1.3290  13.13$  9.18$  19.29$
|202>   Q  0.6645  14.97$  4.45$  13.04$
|203>   Q  0.6645  14.71$  3.08$  13.78$
|204>   Q  -1.3290  14.99$  3.9$  13.69$
|205>   Q  0.6645  3.33$  10.48$  4.26$
|206>   Q  0.6645  4.06$  11.76$  4.69$
|207>   Q  -1.3290  3.73$  11$  4.8$
|208>   Q  0.6645  19.38$  6.76$  15.41$
|209>   Q  0.6645  20.83$  6.37$  15.04$
|210>   Q  -1.3290  20.18$  6.52$  15.57$
|211>   Q  0.6645  18.91$  9.34$  6.28$
|212>   Q  0.6645  19.86$  8.29$  5.65$
|213>   Q  -1.3290  19.65$  9.01$  6.08$
|214>   Q  0.6645  20.6$  5.66$  7.64$
|215>   Q  0.6645  21.02$  7.05$  7.25$
|216>   Q  -1.3290  20.49$  6.47$  7.55$
|217>   Q  0.6645  11.98$  4.78$  8.82$
|218>   Q  0.6645  12.37$  5.88$  9.67$
|219>   Q  -1.3290  12.47$  5.42$  8.97$
|220>   Q  0.6645  6.26$  4.67$  13.71$
|221>   Q  0.6645  7.31$  3.73$  13.2$
|222>   Q  -1.3290  7.05$  4.44$  13.56$
|223>   Q  0.6645  8.39$  6.33$  1.78$
|224>   Q  0.6645  9.72$  6.98$  2.27$
|225>   Q  -1.3290  8.92$  6.7$  2.34$
|226>   Q  0.6645  9.1$  10.44$  0.74$
|227>   Q  0.6645  9.03$  9.53$  1.97$
|228>   Q  -1.3290  9.34$  9.84$  1.25$
|229>   Q  0.6645  15.62$  19.62$  7.38$
|230>   Q  0.6645  15.23$  19.06$  8.76$
|231>   Q  -1.3290  15.58$  19.62$  8.21$
|232>   Q  0.6645  16.02$  18.55$  16.87$
|233>   Q  0.6645  16.49$  19.59$  15.93$
|234>   Q  -1.3290  16.01$  19.3$  16.54$
|235>   Q  0.6645  9.6$  20.18$  10.11$
|236>   Q  0.6645  9.58$  20.44$  11.67$
|237>   Q  -1.3290  9.66$  19.97$  10.95$
|238>   Q  0.6645  17.34$  15.6$  9.64$
|239>   Q  0.6645  18.67$  15.93$  10.49$
|240>   Q  -1.3290  17.96$  16.1$  9.99$
|241>   Q  0.6645  7.89$  12.21$  17.93$
|242>   Q  0.6645  7.5$  10.88$  18.69$
|243>   Q  -1.3290  7.65$  11.69$  18.59$
|244>   Q  0.6645  12.82$  15.39$  7.48$
|245>   Q  0.6645  12.25$  15.04$  8.88$
|246>   Q  -1.3290  12.87$  15.07$  8.27$
|247>   Q  0.6645  18.75$  3.91$  9.1$
|248>   Q  0.6645  18.5$  5.08$  9.92$
|249>   Q  -1.3290  18.97$  4.46$  9.65$
|250>   Q  0.6645  8.9$  2.56$  4.55$
|251>   Q  0.6645  10.2$  2.06$  5.13$
|252>   Q  -1.3290  9.43$  2.37$  5.18$
|253>   Q  0.6645  4.87$  13.04$  19.77$
|254>   Q  0.6645  6.32$  12.4$  19.45$
|255>   Q  -1.3290  5.7$  12.8$  19.92$
|256>   Q  0.6645  2.39$  14.95$  3.47$
|257>   Q  0.6645  2.09$  15.36$  4.97$
|258>   Q  -1.3290  2.55$  15.34$  4.24$
|259>   Q  0.6645  14.66$  6.32$  18.79$
|260>   Q  0.6645  13.57$  6.63$  19.85$
|261>   Q  -1.3290  13.91$  6.63$  19.07$
|262>   Q  0.6645  19.71$  4.15$  11.38$
|263>   Q  0.6645  19.09$  4.27$  12.77$
|264>   Q  -1.3290  19.7$  4.09$  12.21$
|265>   Q  0.6645  19.97$  11.14$  8.5$
|266>   Q  0.6645  20.64$  10.03$  7.69$
|267>   Q  -1.3290  20.46$  10.46$  8.4$
|268>   Q  0.6645  17.59$  8.27$  15.24$
|269>   Q  0.6645  17.08$  7.25$  16.33$
|270>   Q  -1.3290  17.32$  7.5$  15.55$
|271>   Q  0.6645  1.87$  10.46$  7.55$
|272>   Q  0.6645  2.74$  10.41$  6.3$
|273>   Q  -1.3290  2.1$  10.14$  6.81$
|274>   Q  0.6645  7.34$  5.58$  5.05$
|275>   Q  0.6645  8.41$  6.34$  4.46$
|276>   Q  -1.3290  8$  6.03$  5.09$
|277>   Q  0.6645  11.97$  3.76$  14.02$
|278>   Q  0.6645  10.85$  3.62$  15.09$
|279>   Q  -1.3290  11.63$  3.47$  14.71$
|280>   Q  0.6645  9.21$  13.34$  16.26$
|281>   Q  0.6645  9.26$  14.76$  17.01$
|282>   Q  -1.3290  8.93$  14.01$  16.75$
|283>   Q  0.6645  18.84$  16.61$  13.17$
|284>   Q  0.6645  18.3$  15.23$  13.81$
|285>   Q  -1.3290  18.26$  16.05$  13.51$
|286>   Q  0.6645  20.14$  13.64$  17.93$
|287>   Q  0.6645  20.82$  12.34$  17.75$
|288>   Q  -1.3290  20.27$  12.93$  17.57$
|289>   Q  0.6645  5.42$  17.06$  16.84$
|290>   Q  0.6645  5.99$  15.65$  17.04$
|291>   Q  -1.3290  5.8$  16.45$  17.28$
|292>   Q  0.6645  11.43$  13.03$  3.35$
|293>   Q  0.6645  10.95$  12.7$  4.79$
|294>   Q  -1.3290  10.88$  12.79$  3.94$
|295>   Q  0.6645  6.56$  11.87$  0$
|296>   Q  0.6645  7.28$  12.01$  1.37$
|297>   Q  -1.3290  7.11$  11.64$  0.6$
|298>   Q  0.6645  6.44$  3.44$  3.98$
|299>   Q  0.6645  5.19$  4.32$  4.37$
|300>   Q  -1.3290  5.89$  3.86$  4.51$
|301>   Q  0.6645  14.29$  4.19$  9.38$
|302>   Q  0.6645  15.45$  3.29$  10.06$
|303>   Q  -1.3290  14.77$  3.49$  9.52$
|304>   Q  0.6645  14.96$  10.59$  4.29$
|305>   Q  0.6645  14.72$  11.45$  5.46$
|306>   Q  -1.3290  14.89$  10.7$  5.1$
|307>   Q  0.6645  3.21$  4.15$  5.4$
|308>   Q  0.6645  3.56$  5.74$  5.3$
|309>   Q  -1.3290  3.44$  4.91$  5.02$
|310>   Q  0.6645  13.92$  11.71$  21.07$
|311>   Q  0.6645  14.09$  12.17$  19.68$
|312>   Q  -1.3290  13.92$  12.28$  20.5$
|313>   Q  0.6645  1.35$  12.01$  14.79$
|314>   Q  0.6645  0.26$  12.55$  15.67$
|315>   Q  -1.3290  0.89$  12.05$  15.49$
|316>   Q  0.6645  18.03$  2.51$  8.07$
|317>   Q  0.6645  17.05$  3.27$  7.17$
|318>   Q  -1.3290  17.79$  3.11$  7.52$
|319>   Q  0.6645  6.43$  17.55$  7.12$
|320>   Q  0.6645  5.08$  17.02$  7.67$
|321>   Q  -1.3290  5.92$  17.01$  7.56$
|322>   Q  0.6645  16.46$  10.48$  6.23$
|323>   Q  0.6645  17.08$  9.26$  7.01$
|324>   Q  -1.3290  17.06$  10.08$  6.64$
|325>   Q  0.6645  11.93$  16.12$  15.68$
|326>   Q  0.6645  12.04$  14.81$  16.33$
|327>   Q  -1.3290  11.87$  15.6$  16.3$
|328>   Q  0.6645  16.73$  6.98$  7.95$
|329>   Q  0.6645  18.23$  7.17$  8$
|330>   Q  -1.3290  17.46$  7.39$  7.81$
|331>   Q  0.6645  4.52$  16.68$  4.57$
|332>   Q  0.6645  6.01$  16.4$  4.62$
|333>   Q  -1.3290  5.3$  16.87$  4.68$
|334>   Q  0.6645  12.55$  12.97$  6.54$
|335>   Q  0.6645  11.18$  13.35$  7.06$
|336>   Q  -1.3290  11.75$  12.85$  6.71$
|337>   Q  0.6645  21.34$  14.59$  8.03$
|338>   Q  0.6645  20.13$  13.83$  8.22$
|339>   Q  -1.3290  20.92$  13.96$  8.32$
|340>   Q  0.6645  13.78$  15.89$  18.69$
|341>   Q  0.6645  12.46$  16.23$  18.03$
|342>   Q  -1.3290  13.05$  16.31$  18.62$
|343>   Q  0.6645  20.8$  8.33$  10.96$
|344>   Q  0.6645  20.32$  7.67$  9.74$
|345>   Q  -1.3290  20.71$  7.7$  10.45$
|346>   Q  0.6645  0.72$  6.52$  13.38$
|347>   Q  0.6645  1.2$  6.37$  14.91$
|348>   Q  -1.3290  0.89$  6.82$  14.23$
|349>   Q  0.6645  11.57$  15.24$  19.77$
|350>   Q  0.6645  10.08$  15.47$  19.25$
|351>   Q  -1.3290  10.79$  15.03$  19.43$
|352>   Q  0.6645  4.68$  6.34$  18.35$
|353>   Q  0.6645  4.11$  7.74$  17.73$
|354>   Q  -1.3290  4.55$  6.98$  17.75$
|355>   Q  0.6645  12.36$  20$  6.14$
|356>   Q  0.6645  12.04$  21.55$  6.23$
|357>   Q  -1.3290  12.17$  20.8$  5.83$
|358>   Q  0.6645  14.58$  7.72$  6.9$
|359>   Q  0.6645  14.62$  9.23$  6.53$
|360>   Q  -1.3290  14.43$  8.54$  7.01$
|361>   Q  0.6645  11.72$  10.48$  2.56$
|362>   Q  0.6645  11.99$  9.29$  3.62$
|363>   Q  -1.3290  12.03$  9.74$  2.87$
|364>   Q  0.6645  19.18$  13.78$  15.21$
|365>   Q  0.6645  18.34$  13.02$  14.14$
|366>   Q  -1.3290  18.47$  13.55$  14.8$
|367>   Q  0.6645  7.07$  8.05$  3.68$
|368>   Q  0.6645  5.92$  8.14$  4.55$
|369>   Q  -1.3290  6.27$  7.98$  3.82$
|370>   Q  0.6645  17.64$  5.28$  14.39$
|371>   Q  0.6645  16.89$  4.02$  14.13$
|372>   Q  -1.3290  17.56$  4.48$  14.24$
|373>   Q  0.6645  13.59$  4.59$  3.94$
|374>   Q  0.6645  15.08$  4.96$  3.35$
|375>   Q  -1.3290  14.2$  4.89$  3.38$
|376>   Q  0.6645  1.55$  16.11$  11.47$
|377>   Q  0.6645  1.03$  17.19$  10.36$
|378>   Q  -1.3290  1.2$  16.85$  11.17$
|379>   Q  0.6645  2.09$  11.06$  12.4$
|380>   Q  0.6645  2.3$  12.61$  12.5$
|381>   Q  -1.3290  2.22$  11.8$  12.8$
|382>   Q  0.6645  18.67$  11.99$  2.58$
|383>   Q  0.6645  17.2$  11.94$  2.7$
|384>   Q  -1.3290  17.95$  12.28$  2.87$
|385>   Q  0.6645  15.23$  13.46$  5.36$
|386>   Q  0.6645  13.85$  13.92$  4.84$
|387>   Q  -1.3290  14.38$  13.43$  5.24$
|388>   Q  0.6645  8.1$  13.6$  2.77$
|389>   Q  0.6645  8.81$  12.43$  3.51$
|390>   Q  -1.3290  8.15$  12.84$  3.16$
|391>   Q  0.6645  16.33$  13.24$  18.71$
|392>   Q  0.6645  16.24$  13.12$  20.15$
|393>   Q  -1.3290  16.56$  13.44$  19.48$
|394>   Q  0.6645  19.16$  8.58$  2.72$
|395>   Q  0.6645  17.76$  8.37$  2.4$
|396>   Q  -1.3290  18.34$  8.65$  2.88$
|397>   Q  0.6645  12.46$  0.91$  8.15$
|398>   Q  0.6645  11.75$  1.99$  7.24$
|399>   Q  -1.3290  11.92$  1.19$  7.51$
|400>   Q  0.6645  13.7$  8.46$  2.58$
|401>   Q  0.6645  13.84$  6.97$  2.99$
|402>   Q  -1.3290  14.1$  7.73$  2.73$
|403>   Q  0.6645  2.92$  14.85$  7.13$
|404>   Q  0.6645  3.59$  14.97$  8.45$
|405>   Q  -1.3290  3.5$  15.15$  7.66$
|406>   Q  0.6645  16.55$  18.77$  11.75$
|407>   Q  0.6645  17.11$  17.46$  11.5$
|408>   Q  -1.3290  16.56$  17.96$  11.83$
|409>   Q  0.6645  4.39$  18.33$  15.22$
|410>   Q  0.6645  4$  19.25$  16.38$
|411>   Q  -1.3290  4.51$  18.75$  15.92$
|412>   Q  0.6645  11.12$  18.45$  10.63$
|413>   Q  0.6645  12.44$  17.88$  10.02$
|414>   Q  -1.3290  11.67$  17.87$  10.43$
|415>   Q  0.6645  8.18$  4.1$  15.14$
|416>   Q  0.6645  8.91$  4.77$  16.26$
|417>   Q  -1.3290  8.69$  4.1$  15.81$
|418>   Q  0.6645  14.72$  14.81$  2.68$
|419>   Q  0.6645  15.19$  16.06$  3.51$
|420>   Q  -1.3290  14.66$  15.6$  3.01$
|421>   Q  0.6645  1.3$  8.42$  6.67$
|422>   Q  0.6645  0.51$  7.68$  5.68$
|423>   Q  -1.3290  0.91$  7.74$  6.37$
|424>   Q  0.6645  12.33$  5.79$  18.34$
|425>   Q  0.6645  11.85$  4.46$  18.56$
|426>   Q  -1.3290  11.73$  5.27$  18.5$
|427>   Q  0.6645  9.69$  8.55$  15.37$
|428>   Q  0.6645  8.77$  7.65$  16.13$
|429>   Q  -1.3290  8.97$  8.17$  15.51$
|430>   Q  0.6645  1.19$  16.19$  7.02$
|431>   Q  0.6645  0.3$  15.44$  5.95$
|432>   Q  -1.3290  0.93$  15.59$  6.5$
|433>   Q  0.6645  8.08$  15.74$  5.4$
|434>   Q  0.6645  8.9$  15.95$  4.12$
|435>   Q  -1.3290  8.58$  16.19$  4.87$
|436>   Q  0.6645  5.09$  8.72$  12.93$
|437>   Q  0.6645  3.97$  9.47$  13.53$
|438>   Q  -1.3290  4.75$  9.23$  13.51$
|439>   Q  0.6645  21.72$  8.68$  14.72$
|440>   Q  0.6645  21.88$  10.13$  15.15$
|441>   Q  -1.3290  21.46$  9.47$  14.87$
|442>   Q  0.6645  10.87$  6.91$  0.58$
|443>   Q  0.6645  11.41$  8.18$  1.46$
|444>   Q  -1.3290  11.35$  7.36$  1.17$
|445>   Q  0.6645  15.97$  4.99$  16.77$
|446>   Q  0.6645  15.18$  4.19$  15.62$
|447>   Q  -1.3290  15.61$  4.3$  16.39$
|448>   Q  0.6645  2.5$  7.9$  9.45$
|449>   Q  0.6645  0.94$  7.78$  9.79$
|450>   Q  -1.3290  1.76$  8.06$  9.87$
|451>   Q  0.6645  5.14$  6.61$  8.42$
|452>   Q  0.6645  3.65$  6.13$  8.46$
|453>   Q  -1.3290  4.29$  6.72$  8.49$
|454>   Q  0.6645  12.57$  1.12$  12.33$
|455>   Q  0.6645  12.45$  0.58$  10.98$
|456>   Q  -1.3290  12.56$  1.19$  11.52$
|457>   Q  0.6645  5.89$  14.27$  5.42$
|458>   Q  0.6645  6.05$  15.49$  6.43$
|459>   Q  -1.3290  6.32$  14.83$  5.97$
|460>   Q  0.6645  7.61$  18$  5.53$
|461>   Q  0.6645  6.87$  19.39$  5.95$
|462>   Q  -1.3290  7.36$  18.66$  6.07$
|463>   Q  0.6645  10.94$  13.15$  21.28$
|464>   Q  0.6645  9.79$  12.55$  20.46$
|465>   Q  -1.3290  10.22$  12.71$  21.18$
|466>   Q  0.6645  12.76$  20.24$  8.87$
|467>   Q  0.6645  14.11$  20.76$  8.93$
|468>   Q  -1.3290  13.32$  20.79$  9.16$
|469>   Q  0.6645  16.12$  15.34$  19.81$
|470>   Q  0.6645  15.82$  16.77$  20.01$
|471>   Q  -1.3290  15.71$  16.05$  19.61$
|472>   Q  0.6645  3.13$  9.54$  19.17$
|473>   Q  0.6645  2.98$  9.92$  17.64$
|474>   Q  -1.3290  2.92$  9.43$  18.35$
|475>   Q  0.6645  14.34$  16.84$  13.88$
|476>   Q  0.6645  15.72$  16.89$  13.36$
|477>   Q  -1.3290  15.1$  16.56$  13.8$
|478>   Q  0.6645  12.01$  17.7$  12.55$
|479>   Q  0.6645  11.07$  17.56$  13.66$
|480>   Q  -1.3290  11.83$  17.55$  13.34$
|481>   Q  0.6645  14.71$  17.4$  5.67$
|482>   Q  0.6645  13.46$  16.8$  5.56$
|483>   Q  -1.3290  14.05$  17.11$  6$
|484>   Q  0.6645  5.16$  3.9$  7$
|485>   Q  0.6645  4.11$  2.91$  6.88$
|486>   Q  -1.3290  4.54$  3.49$  7.29$
|487>   Q  0.6645  8.63$  6.15$  17.96$
|488>   Q  0.6645  10.06$  6.03$  17.4$
|489>   Q  -1.3290  9.23$  6.15$  17.33$
|490>   Q  0.6645  14.66$  12.53$  2.4$
|491>   Q  0.6645  15.43$  12.92$  1.13$
|492>   Q  -1.3290  14.97$  13.06$  1.83$
|493>   Q  0.6645  9.24$  18.17$  12$
|494>   Q  0.6645  8.62$  17.03$  12.93$
|495>   Q  -1.3290  9.18$  17.62$  12.67$
|496>   Q  0.6645  4.68$  18.38$  6.16$
|497>   Q  0.6645  4.69$  19.86$  6.68$
|498>   Q  -1.3290  4.41$  19.05$  6.64$
|499>   Q  0.6645  0.06$  13.63$  5.2$
|500>   Q  0.6645  0.84$  12.36$  5.88$
|501>   Q  -1.3290  0.47$  12.85$  5.25$
|502>   Q  0.6645  17.22$  7.39$  10.07$
|503>   Q  0.6645  16.87$  6.31$  11.12$
|504>   Q  -1.3290  17.38$  6.7$  10.56$
|505>   Q  0.6645  6.09$  10.7$  5.32$
|506>   Q  0.6645  7.11$  11.88$  5.08$
|507>   Q  -1.3290  6.74$  11.23$  5.51$
|508>   Q  0.6645  3.2$  7.81$  5.71$
|509>   Q  0.6645  4.27$  7.6$  6.67$
|510>   Q  -1.3290  3.93$  7.52$  5.94$
|511>   Q  0.6645  13.08$  2.39$  17.84$
|512>   Q  0.6645  14.04$  3.53$  17.67$
|513>   Q  -1.3290  13.42$  3.15$  18.08$
|514>   Q  0.6645  14.24$  16.45$  9.59$
|515>   Q  0.6645  14.71$  17.37$  10.69$
|516>   Q  -1.3290  14.31$  17.18$  9.94$
|517>   Q  0.6645  3.34$  2.78$  11.2$
|518>   Q  0.6645  4.46$  1.91$  11.33$
|519>   Q  -1.3290  4.09$  2.62$  11.46$
|520>   Q  0.6645  3.89$  5.52$  12.29$
|521>   Q  0.6645  4.84$  4.57$  11.54$
|522>   Q  -1.3290  4.63$  5.27$  11.98$
|523>   Q  0.6645  17.72$  16.52$  5.34$
|524>   Q  0.6645  17.81$  15.12$  5.89$
|525>   Q  -1.3290  18.08$  15.92$  5.81$
|526>   Q  0.6645  6.06$  9.5$  15.05$
|527>   Q  0.6645  7.59$  9.56$  15.55$
|528>   Q  -1.3290  6.77$  9.8$  15.49$
|529>   Q  0.6645  8.85$  7.77$  19.44$
|530>   Q  0.6645  7.94$  6.92$  20.38$
|531>   Q  -1.3290  8.15$  7.31$  19.66$
|532>   Q  0.6645  5.22$  13.52$  3.76$
|533>   Q  0.6645  4.05$  14.14$  4.6$
|534>   Q  -1.3290  4.7$  13.62$  4.43$
|535>   Q  0.6645  19.46$  16.67$  7.28$
|536>   Q  0.6645  19.13$  16.73$  8.73$
|537>   Q  -1.3290  19.63$  16.8$  8.09$
|538>   Q  0.6645  7.63$  6.45$  13.21$
|539>   Q  0.6645  8.52$  7.54$  13.62$
|540>   Q  -1.3290  8.11$  7.1$  13.06$
|541>   Q  0.6645  18.53$  17.15$  16.67$
|542>   Q  0.6645  18.53$  16.57$  15.17$
|543>   Q  -1.3290  18.88$  16.78$  15.95$
|544>   Q  0.6645  11.66$  15.27$  4.73$
|545>   Q  0.6645  11.11$  15.92$  5.91$
|546>   Q  -1.3290  11.71$  15.57$  5.49$
|547>   Q  0.6645  17.59$  12.8$  6.34$
|548>   Q  0.6645  17.62$  13.2$  4.81$
|549>   Q  -1.3290  17.39$  13.25$  5.65$
|550>   Q  0.6645  15.51$  5.17$  7.37$
|551>   Q  0.6645  14.54$  6.02$  8.21$
|552>   Q  -1.3290  15.16$  5.88$  7.61$
|553>   Q  0.6645  6.98$  14.04$  16.36$
|554>   Q  0.6645  5.7$  13.61$  15.55$
|555>   Q  -1.3290  6.24$  14.18$  15.93$
|556>   Q  0.6645  11.68$  -0.22$  14.88$
|557>   Q  0.6645  11.53$  1.39$  14.62$
|558>   Q  -1.3290  11.91$  0.58$  14.61$
|559>   Q  0.6645  5.63$  7.02$  11.47$
|560>   Q  0.6645  6.87$  7.96$  11.57$
|561>   Q  -1.3290  6.06$  7.77$  11.49$
|562>   Q  0.6645  20.63$  14.75$  11.06$
|563>   Q  0.6645  20.87$  16.1$  11.58$
|564>   Q  -1.3290  20.38$  15.51$  11.34$
|565>   Q  0.6645  14.8$  1.46$  10.74$
|566>   Q  0.6645  15.31$  1.04$  12.08$
|567>   Q  -1.3290  15.4$  1.26$  11.29$
|568>   Q  0.6645  11.21$  16.83$  3$
|569>   Q  0.6645  12.04$  15.85$  2.16$
|570>   Q  -1.3290  11.43$  16.08$  2.68$
|571>   Q  0.6645  8.9$  19.13$  13.76$
|572>   Q  0.6645  9.29$  20.11$  14.89$
|573>   Q  -1.3290  9.02$  19.89$  14.1$
|574>   Q  0.6645  18.98$  8.87$  12.27$
|575>   Q  0.6645  18.82$  7.32$  11.81$
|576>   Q  -1.3290  18.9$  7.97$  12.35$
|577>   Q  0.6645  2.62$  12.02$  16.72$
|578>   Q  0.6645  4.07$  11.99$  16.48$
|579>   Q  -1.3290  3.39$  11.82$  16.94$
|580>   Q  0.6645  12.78$  19.06$  14.86$
|581>   Q  0.6645  13.76$  19.58$  15.81$
|582>   Q  -1.3290  13.05$  19.59$  15.4$
|583>   Q  0.6645  1.56$  6.15$  7.82$
|584>   Q  0.6645  2.22$  4.87$  7.53$
|585>   Q  -1.3290  1.97$  5.48$  8.02$
|586>   Q  0.6645  8.29$  5.33$  9.51$
|587>   Q  0.6645  7.34$  4.55$  8.83$
|588>   Q  -1.3290  7.75$  5.24$  8.93$
|589>   Q  0.6645  20.94$  11.47$  4.41$
|590>   Q  0.6645  19.73$  10.57$  4.16$
|591>   Q  -1.3290  20.51$  10.86$  4.03$
|592>   Q  0.6645  14.03$  9.39$  -0.29$
|593>   Q  0.6645  13.43$  10.17$  0.96$
|594>   Q  -1.3290  14$  9.89$  0.4$
|595>   Q  0.6645  21.1$  14.02$  13.46$
|596>   Q  0.6645  21.95$  14.63$  14.59$
|597>   Q  -1.3290  21.37$  14.1$  14.26$
|598>   Q  0.6645  15.16$  16.43$  15.73$
|599>   Q  0.6645  14.33$  17.02$  16.93$
|600>   Q  -1.3290  14.98$  16.71$  16.53$
|601>   Q  0.6645  10.07$  9.05$  21.12$
|602>   Q  0.6645  10.25$  9.47$  19.61$
|603>   Q  -1.3290  10.32$  8.95$  20.29$
|604>   Q  0.6645  11.39$  13.26$  18.33$
|605>   Q  0.6645  12.41$  12.28$  17.55$
|606>   Q  -1.3290  11.66$  12.55$  17.86$
|607>   Q  0.6645  21.29$  11.01$  11.66$
|608>   Q  0.6645  21.18$  10.32$  13.01$
|609>   Q  -1.3290  20.98$  10.46$  12.2$
|610>   Q  0.6645  10.3$  20.24$  5.1$
|611>   Q  0.6645  9.08$  19.47$  5.56$
|612>   Q  -1.3290  9.53$  19.91$  5$
|613>   Q  0.6645  16.72$  7.07$  18.73$
|614>   Q  0.6645  16.79$  5.54$  18.49$
|615>   Q  -1.3290  16.58$  6.35$  18.3$
|616>   Q  0.6645  19.28$  9.62$  15.16$
|617>   Q  0.6645  18.21$  10.56$  15.8$
|618>   Q  -1.3290  18.5$  9.96$  15.26$
|619>   Q  0.6645  10.56$  2.17$  10.86$
|620>   Q  0.6645  9.8$  1.44$  9.85$
|621>   Q  -1.3290  9.87$  1.95$  10.5$
|622>   Q  0.6645  17.1$  20.59$  13.89$
|623>   Q  0.6645  16.73$  19.13$  13.46$
|624>   Q  -1.3290  17.04$  19.74$  13.97$
|625>   Q  0.6645  12.17$  4.22$  5.73$
|626>   Q  0.6645  12.54$  2.77$  5.18$
|627>   Q  -1.3290  12.65$  3.53$  5.55$
|628>   Q  0.6645  10.08$  10.95$  17.96$
|629>   Q  0.6645  10.18$  9.7$  17.11$
|630>   Q  -1.3290  9.88$  10.17$  17.72$
|631>   Q  0.6645  2.13$  8.61$  11.73$
|632>   Q  0.6645  1.71$  8.61$  13.16$
|633>   Q  -1.3290  2.13$  8.89$  12.49$
|634>   Q  0.6645  11.28$  11.91$  0.89$
|635>   Q  0.6645  12.57$  12.82$  1.21$
|636>   Q  -1.3290  12.06$  12.13$  1.24$
|637>   Q  0.6645  6.22$  9.57$  17.4$
|638>   Q  0.6645  6.79$  8.5$  18.31$
|639>   Q  -1.3290  6.33$  9.2$  18.15$
|640>   Q  0.6645  5.72$  9.32$  2.46$
|641>   Q  0.6645  6.38$  10.24$  1.41$
|642>   Q  -1.3290  5.73$  9.76$  1.74$
|643>   Q  0.6645  16.09$  14.85$  17.05$
|644>   Q  0.6645  16.95$  14.02$  16.16$
|645>   Q  -1.3290  16.38$  14.13$  16.73$
|646>   Q  0.6645  2.52$  17.99$  14.09$
|647>   Q  0.6645  3.2$  17.62$  12.87$
|648>   Q  -1.3290  3.12$  17.6$  13.67$
|649>   Q  0.6645  15.55$  10.43$  1.69$
|650>   Q  0.6645  16.56$  9.98$  2.76$
|651>   Q  -1.3290  15.92$  10.45$  2.44$
|652>   Q  0.6645  18.83$  11.71$  17.59$
|653>   Q  0.6645  18.61$  10.2$  17.76$
|654>   Q  -1.3290  18.35$  11.01$  17.63$
|655>   Q  0.6645  2.54$  14.48$  12.81$
|656>   Q  0.6645  3.09$  14.19$  11.37$
|657>   Q  -1.3290  2.48$  14.27$  11.97$
|658>   Q  0.6645  12.75$  18.24$  7.36$
|659>   Q  0.6645  11.35$  18.47$  7.82$
|660>   Q  -1.3290  12.12$  18.71$  7.68$
|661>   Q  0.6645  15.37$  0.85$  14.28$
|662>   Q  0.6645  13.8$  0.83$  14.1$
|663>   Q  -1.3290  14.61$  1.07$  13.92$
|664> *
|665> 
|666>                          ****END OF INPUT****
================================================================================

                     *******************************
                     * Energy+Gradient Calculation *
                     *******************************

---------------------------------
CARTESIAN COORDINATES (ANGSTROEM)
---------------------------------
  C     12.830000   10.430000   10.920000
  H     12.750000   10.310000    9.890000
  H     12.480000    9.480000   11.510000
  C     11.810000   11.550000   11.050000
  H     12.260000   12.220000   11.810000
  H     11.910000   12.190000   10.130000
  C     10.300000   11.290000   11.450000
  H      9.920000   12.090000   11.990000
  H     10.270000   10.380000   12.060000
  C      9.330000   11.160000   10.350000
  H      9.540000   10.350000    9.630000
  H      9.380000   12.110000    9.810000
  O      7.950000   11.070000   10.960000
  H      7.410000   10.640000   10.330000
  O     14.220000   10.660000   11.070000
  H     14.280000   11.080000   12.020000
  O     15.180000   11.060000   13.490000
  H     15.340000   12.000000   13.200000
  H     15.700000   10.340000   12.970000
  O     11.980000   14.170000   13.670000
  H     11.540000   14.780000   13.070000
  H     12.910000   14.090000   13.360000
  O     10.520000    7.730000    8.570000
  H     11.020000    8.500000    8.470000
  H      9.670000    7.970000    8.180000
  O      8.500000   14.080000   11.590000
  H      7.980000   14.530000   12.240000
  H      8.350000   13.170000   11.940000
  O     13.430000    7.490000   13.450000
  H     13.250000    8.170000   14.090000
  H     14.250000    7.790000   13.010000
  O     16.660000   11.740000   10.270000
  H     15.730000   11.400000   10.380000
  H     17.210000   11.560000   11.080000
  O     15.500000    8.440000    9.690000
  H     15.220000    9.180000   10.230000
  H     15.020000    8.520000    8.850000
  O     12.060000    9.840000    7.820000
  H     12.130000   10.700000    7.340000
  H     12.780000    9.250000    7.560000
  O     15.640000   14.320000    9.420000
  H     15.970000   13.410000    9.610000
  H     15.030000   14.100000    8.670000
  O     14.870000    5.950000   10.940000
  H     14.040000    5.640000   11.260000
  H     14.860000    6.970000   10.750000
  O     15.970000    8.150000   12.820000
  H     15.930000    7.850000   13.760000
  H     16.850000    8.040000   12.500000
  O      6.270000    9.530000    9.090000
  H      5.910000    8.940000    9.790000
  H      6.980000    9.060000    8.560000
  O     13.880000   10.140000   15.730000
  H     14.160000   10.590000   16.540000
  H     14.500000   10.380000   15.040000
  O      4.760000   11.720000    8.240000
  H      5.120000   12.290000    7.580000
  H      5.360000   10.930000    8.370000
  O     10.940000    5.670000    6.170000
  H     10.830000    5.860000    7.110000
  H     10.150000    6.010000    5.700000
  O     14.810000   13.740000   12.410000
  H     15.140000   14.490000   12.910000
  H     14.890000   13.980000   11.480000
  O      7.890000    7.850000    7.670000
  H      7.820000    7.090000    8.240000
  H      7.930000    7.350000    6.800000
  O     13.720000   13.160000   15.840000
  H     14.590000   13.290000   16.280000
  H     13.930000   12.440000   15.190000
  O     18.330000   12.100000    8.200000
  H     18.150000   11.350000    7.620000
  H     17.750000   11.850000    8.900000
  O      7.530000   12.910000    7.840000
  H      7.200000   13.630000    7.310000
  H      7.290000   12.110000    7.370000
  O      6.450000   15.890000   10.490000
  H      6.970000   15.170000   10.180000
  H      6.370000   16.390000    9.650000
  O     11.280000    8.560000    5.050000
  H     11.680000    7.690000    5.240000
  H     11.200000    9.000000    5.930000
  O     12.170000    5.500000   11.790000
  H     12.480000    6.100000   12.510000
  H     11.320000    5.760000   11.640000
  O     10.040000   13.970000    8.340000
  H     10.070000   14.190000    9.260000
  H      9.180000   13.540000    8.250000
  O     11.020000    9.670000   15.110000
  H     10.700000   10.560000   14.840000
  H     11.870000    9.820000   15.540000
  O      7.180000   12.040000   13.450000
  H      7.120000   11.270000   14.030000
  H      7.130000   11.620000   12.570000
  O      9.530000    5.980000   10.820000
  H      8.930000    6.280000   11.590000
  H      9.880000    6.750000   10.330000
  O      9.680000   12.400000   14.810000
  H     10.340000   13.020000   14.430000
  H      8.910000   12.520000   14.220000
  O     10.920000   14.970000   10.680000
  H     10.110000   14.830000   11.250000
  H     11.010000   15.970000   10.710000
  O      7.200000   15.940000   13.340000
  H      6.550000   15.570000   13.990000
  H      6.640000   16.260000   12.580000
  O     18.180000   11.280000   12.490000
  H     18.190000   10.830000   13.330000
  H     19.010000   11.080000   12.110000
  Q     15.040000    2.800000    7.870000
  Q     14.350000    3.020000    6.520000
  Q     15.010000    2.850000    7.030000
  Q     17.760000    7.540000    4.480000
  Q     17.810000    6.990000    6.040000
  Q     17.790000    6.990000    5.160000
  Q     18.080000   17.790000   18.930000
  Q     16.980000   16.920000   18.290000
  Q     17.690000   17.380000   18.310000
  Q      3.440000    7.790000    3.100000
  Q      2.690000    8.600000    2.160000
  Q      2.960000    8.410000    2.930000
  Q      3.700000   12.050000   14.160000
  Q      5.170000   11.890000   14.400000
  Q      4.420000   12.210000   14.540000
  Q      4.620000   12.970000    9.970000
  Q      5.040000   14.500000   10.220000
  Q      4.500000   13.820000   10.110000
  Q      2.820000   12.460000    7.790000
  Q      1.250000   12.750000    8.070000
  Q      1.980000   12.630000    7.590000
  Q     16.130000   10.930000   17.990000
  Q     14.900000   10.220000   18.540000
  Q     15.320000   10.870000   18.190000
  Q      7.330000    1.310000   12.640000
  Q      8.410000    2.030000   11.850000
  Q      7.710000    1.990000   12.320000
  Q      4.620000    5.680000   16.030000
  Q      4.270000    4.430000   14.940000
  Q      4.730000    4.970000   15.480000
  Q      0.060000    4.990000   12.410000
  Q      0.090000    6.100000   11.430000
  Q      0.450000    5.590000   11.990000
  Q     21.400000   13.080000   10.000000
  Q     22.260000   13.140000   11.330000
  Q     21.560000   13.060000   10.850000
  Q      9.370000   17.240000    7.330000
  Q     10.040000   16.170000    8.150000
  Q     10.030000   16.820000    7.630000
  Q      3.540000   14.370000   14.760000
  Q      3.060000   15.780000   14.330000
  Q      2.960000   14.950000   14.600000
  Q      7.830000   17.240000   18.290000
  Q      9.060000   17.630000   19.180000
  Q      8.490000   17.120000   18.820000
  Q      0.560000   10.690000    9.330000
  Q      1.760000    9.910000    9.790000
  Q      1.340000   10.590000    9.600000
  Q      2.050000    4.350000    9.660000
  Q      1.530000    4.260000   11.060000
  Q      1.920000    3.970000   10.400000
  Q     15.740000    8.100000    1.840000
  Q     16.570000    6.950000    1.230000
  Q     16.360000    7.770000    1.330000
  Q      9.860000    3.780000    7.530000
  Q      9.970000    3.410000    8.960000
  Q     10.310000    3.610000    8.230000
  Q      8.350000    9.970000    4.700000
  Q      9.490000    9.090000    4.160000
  Q      8.710000    9.380000    4.200000
  Q      5.650000    2.900000    9.730000
  Q      6.920000    2.700000   10.520000
  Q      6.480000    2.870000    9.830000
  Q     13.410000    8.400000   19.020000
  Q     12.470000    9.440000   19.780000
  Q     13.130000    9.180000   19.290000
  Q     14.970000    4.450000   13.040000
  Q     14.710000    3.080000   13.780000
  Q     14.990000    3.900000   13.690000
  Q      3.330000   10.480000    4.260000
  Q      4.060000   11.760000    4.690000
  Q      3.730000   11.000000    4.800000
  Q     19.380000    6.760000   15.410000
  Q     20.830000    6.370000   15.040000
  Q     20.180000    6.520000   15.570000
  Q     18.910000    9.340000    6.280000
  Q     19.860000    8.290000    5.650000
  Q     19.650000    9.010000    6.080000
  Q     20.600000    5.660000    7.640000
  Q     21.020000    7.050000    7.250000
  Q     20.490000    6.470000    7.550000
  Q     11.980000    4.780000    8.820000
  Q     12.370000    5.880000    9.670000
  Q     12.470000    5.420000    8.970000
  Q      6.260000    4.670000   13.710000
  Q      7.310000    3.730000   13.200000
  Q      7.050000    4.440000   13.560000
  Q      8.390000    6.330000    1.780000
  Q      9.720000    6.980000    2.270000
  Q      8.920000    6.700000    2.340000
  Q      9.100000   10.440000    0.740000
  Q      9.030000    9.530000    1.970000
  Q      9.340000    9.840000    1.250000
  Q     15.620000   19.620000    7.380000
  Q     15.230000   19.060000    8.760000
  Q     15.580000   19.620000    8.210000
  Q     16.020000   18.550000   16.870000
  Q     16.490000   19.590000   15.930000
  Q     16.010000   19.300000   16.540000
  Q      9.600000   20.180000   10.110000
  Q      9.580000   20.440000   11.670000
  Q      9.660000   19.970000   10.950000
  Q     17.340000   15.600000    9.640000
  Q     18.670000   15.930000   10.490000
  Q     17.960000   16.100000    9.990000
  Q      7.890000   12.210000   17.930000
  Q      7.500000   10.880000   18.690000
  Q      7.650000   11.690000   18.590000
  Q     12.820000   15.390000    7.480000
  Q     12.250000   15.040000    8.880000
  Q     12.870000   15.070000    8.270000
  Q     18.750000    3.910000    9.100000
  Q     18.500000    5.080000    9.920000
  Q     18.970000    4.460000    9.650000
  Q      8.900000    2.560000    4.550000
  Q     10.200000    2.060000    5.130000
  Q      9.430000    2.370000    5.180000
  Q      4.870000   13.040000   19.770000
  Q      6.320000   12.400000   19.450000
  Q      5.700000   12.800000   19.920000
  Q      2.390000   14.950000    3.470000
  Q      2.090000   15.360000    4.970000
  Q      2.550000   15.340000    4.240000
  Q     14.660000    6.320000   18.790000
  Q     13.570000    6.630000   19.850000
  Q     13.910000    6.630000   19.070000
  Q     19.710000    4.150000   11.380000
  Q     19.090000    4.270000   12.770000
  Q     19.700000    4.090000   12.210000
  Q     19.970000   11.140000    8.500000
  Q     20.640000   10.030000    7.690000
  Q     20.460000   10.460000    8.400000
  Q     17.590000    8.270000   15.240000
  Q     17.080000    7.250000   16.330000
  Q     17.320000    7.500000   15.550000
  Q      1.870000   10.460000    7.550000
  Q      2.740000   10.410000    6.300000
  Q      2.100000   10.140000    6.810000
  Q      7.340000    5.580000    5.050000
  Q      8.410000    6.340000    4.460000
  Q      8.000000    6.030000    5.090000
  Q     11.970000    3.760000   14.020000
  Q     10.850000    3.620000   15.090000
  Q     11.630000    3.470000   14.710000
  Q      9.210000   13.340000   16.260000
  Q      9.260000   14.760000   17.010000
  Q      8.930000   14.010000   16.750000
  Q     18.840000   16.610000   13.170000
  Q     18.300000   15.230000   13.810000
  Q     18.260000   16.050000   13.510000
  Q     20.140000   13.640000   17.930000
  Q     20.820000   12.340000   17.750000
  Q     20.270000   12.930000   17.570000
  Q      5.420000   17.060000   16.840000
  Q      5.990000   15.650000   17.040000
  Q      5.800000   16.450000   17.280000
  Q     11.430000   13.030000    3.350000
  Q     10.950000   12.700000    4.790000
  Q     10.880000   12.790000    3.940000
  Q      6.560000   11.870000    0.000000
  Q      7.280000   12.010000    1.370000
  Q      7.110000   11.640000    0.600000
  Q      6.440000    3.440000    3.980000
  Q      5.190000    4.320000    4.370000
  Q      5.890000    3.860000    4.510000
  Q     14.290000    4.190000    9.380000
  Q     15.450000    3.290000   10.060000
  Q     14.770000    3.490000    9.520000
  Q     14.960000   10.590000    4.290000
  Q     14.720000   11.450000    5.460000
  Q     14.890000   10.700000    5.100000
  Q      3.210000    4.150000    5.400000
  Q      3.560000    5.740000    5.300000
  Q      3.440000    4.910000    5.020000
  Q     13.920000   11.710000   21.070000
  Q     14.090000   12.170000   19.680000
  Q     13.920000   12.280000   20.500000
  Q      1.350000   12.010000   14.790000
  Q      0.260000   12.550000   15.670000
  Q      0.890000   12.050000   15.490000
  Q     18.030000    2.510000    8.070000
  Q     17.050000    3.270000    7.170000
  Q     17.790000    3.110000    7.520000
  Q      6.430000   17.550000    7.120000
  Q      5.080000   17.020000    7.670000
  Q      5.920000   17.010000    7.560000
  Q     16.460000   10.480000    6.230000
  Q     17.080000    9.260000    7.010000
  Q     17.060000   10.080000    6.640000
  Q     11.930000   16.120000   15.680000
  Q     12.040000   14.810000   16.330000
  Q     11.870000   15.600000   16.300000
  Q     16.730000    6.980000    7.950000
  Q     18.230000    7.170000    8.000000
  Q     17.460000    7.390000    7.810000
  Q      4.520000   16.680000    4.570000
  Q      6.010000   16.400000    4.620000
  Q      5.300000   16.870000    4.680000
  Q     12.550000   12.970000    6.540000
  Q     11.180000   13.350000    7.060000
  Q     11.750000   12.850000    6.710000
  Q     21.340000   14.590000    8.030000
  Q     20.130000   13.830000    8.220000
  Q     20.920000   13.960000    8.320000
  Q     13.780000   15.890000   18.690000
  Q     12.460000   16.230000   18.030000
  Q     13.050000   16.310000   18.620000
  Q     20.800000    8.330000   10.960000
  Q     20.320000    7.670000    9.740000
  Q     20.710000    7.700000   10.450000
  Q      0.720000    6.520000   13.380000
  Q      1.200000    6.370000   14.910000
  Q      0.890000    6.820000   14.230000
  Q     11.570000   15.240000   19.770000
  Q     10.080000   15.470000   19.250000
  Q     10.790000   15.030000   19.430000
  Q      4.680000    6.340000   18.350000
  Q      4.110000    7.740000   17.730000
  Q      4.550000    6.980000   17.750000
  Q     12.360000   20.000000    6.140000
  Q     12.040000   21.550000    6.230000
  Q     12.170000   20.800000    5.830000
  Q     14.580000    7.720000    6.900000
  Q     14.620000    9.230000    6.530000
  Q     14.430000    8.540000    7.010000
  Q     11.720000   10.480000    2.560000
  Q     11.990000    9.290000    3.620000
  Q     12.030000    9.740000    2.870000
  Q     19.180000   13.780000   15.210000
  Q     18.340000   13.020000   14.140000
  Q     18.470000   13.550000   14.800000
  Q      7.070000    8.050000    3.680000
  Q      5.920000    8.140000    4.550000
  Q      6.270000    7.980000    3.820000
  Q     17.640000    5.280000   14.390000
  Q     16.890000    4.020000   14.130000
  Q     17.560000    4.480000   14.240000
  Q     13.590000    4.590000    3.940000
  Q     15.080000    4.960000    3.350000
  Q     14.200000    4.890000    3.380000
  Q      1.550000   16.110000   11.470000
  Q      1.030000   17.190000   10.360000
  Q      1.200000   16.850000   11.170000
  Q      2.090000   11.060000   12.400000
  Q      2.300000   12.610000   12.500000
  Q      2.220000   11.800000   12.800000
  Q     18.670000   11.990000    2.580000
  Q     17.200000   11.940000    2.700000
  Q     17.950000   12.280000    2.870000
  Q     15.230000   13.460000    5.360000
  Q     13.850000   13.920000    4.840000
  Q     14.380000   13.430000    5.240000
  Q      8.100000   13.600000    2.770000
  Q      8.810000   12.430000    3.510000
  Q      8.150000   12.840000    3.160000
  Q     16.330000   13.240000   18.710000
  Q     16.240000   13.120000   20.150000
  Q     16.560000   13.440000   19.480000
  Q     19.160000    8.580000    2.720000
  Q     17.760000    8.370000    2.400000
  Q     18.340000    8.650000    2.880000
  Q     12.460000    0.910000    8.150000
  Q     11.750000    1.990000    7.240000
  Q     11.920000    1.190000    7.510000
  Q     13.700000    8.460000    2.580000
  Q     13.840000    6.970000    2.990000
  Q     14.100000    7.730000    2.730000
  Q      2.920000   14.850000    7.130000
  Q      3.590000   14.970000    8.450000
  Q      3.500000   15.150000    7.660000
  Q     16.550000   18.770000   11.750000
  Q     17.110000   17.460000   11.500000
  Q     16.560000   17.960000   11.830000
  Q      4.390000   18.330000   15.220000
  Q      4.000000   19.250000   16.380000
  Q      4.510000   18.750000   15.920000
  Q     11.120000   18.450000   10.630000
  Q     12.440000   17.880000   10.020000
  Q     11.670000   17.870000   10.430000
  Q      8.180000    4.100000   15.140000
  Q      8.910000    4.770000   16.260000
  Q      8.690000    4.100000   15.810000
  Q     14.720000   14.810000    2.680000
  Q     15.190000   16.060000    3.510000
  Q     14.660000   15.600000    3.010000
  Q      1.300000    8.420000    6.670000
  Q      0.510000    7.680000    5.680000
  Q      0.910000    7.740000    6.370000
  Q     12.330000    5.790000   18.340000
  Q     11.850000    4.460000   18.560000
  Q     11.730000    5.270000   18.500000
  Q      9.690000    8.550000   15.370000
  Q      8.770000    7.650000   16.130000
  Q      8.970000    8.170000   15.510000
  Q      1.190000   16.190000    7.020000
  Q      0.300000   15.440000    5.950000
  Q      0.930000   15.590000    6.500000
  Q      8.080000   15.740000    5.400000
  Q      8.900000   15.950000    4.120000
  Q      8.580000   16.190000    4.870000
  Q      5.090000    8.720000   12.930000
  Q      3.970000    9.470000   13.530000
  Q      4.750000    9.230000   13.510000
  Q     21.720000    8.680000   14.720000
  Q     21.880000   10.130000   15.150000
  Q     21.460000    9.470000   14.870000
  Q     10.870000    6.910000    0.580000
  Q     11.410000    8.180000    1.460000
  Q     11.350000    7.360000    1.170000
  Q     15.970000    4.990000   16.770000
  Q     15.180000    4.190000   15.620000
  Q     15.610000    4.300000   16.390000
  Q      2.500000    7.900000    9.450000
  Q      0.940000    7.780000    9.790000
  Q      1.760000    8.060000    9.870000
  Q      5.140000    6.610000    8.420000
  Q      3.650000    6.130000    8.460000
  Q      4.290000    6.720000    8.490000
  Q     12.570000    1.120000   12.330000
  Q     12.450000    0.580000   10.980000
  Q     12.560000    1.190000   11.520000
  Q      5.890000   14.270000    5.420000
  Q      6.050000   15.490000    6.430000
  Q      6.320000   14.830000    5.970000
  Q      7.610000   18.000000    5.530000
  Q      6.870000   19.390000    5.950000
  Q      7.360000   18.660000    6.070000
  Q     10.940000   13.150000   21.280000
  Q      9.790000   12.550000   20.460000
  Q     10.220000   12.710000   21.180000
  Q     12.760000   20.240000    8.870000
  Q     14.110000   20.760000    8.930000
  Q     13.320000   20.790000    9.160000
  Q     16.120000   15.340000   19.810000
  Q     15.820000   16.770000   20.010000
  Q     15.710000   16.050000   19.610000
  Q      3.130000    9.540000   19.170000
  Q      2.980000    9.920000   17.640000
  Q      2.920000    9.430000   18.350000
  Q     14.340000   16.840000   13.880000
  Q     15.720000   16.890000   13.360000
  Q     15.100000   16.560000   13.800000
  Q     12.010000   17.700000   12.550000
  Q     11.070000   17.560000   13.660000
  Q     11.830000   17.550000   13.340000
  Q     14.710000   17.400000    5.670000
  Q     13.460000   16.800000    5.560000
  Q     14.050000   17.110000    6.000000
  Q      5.160000    3.900000    7.000000
  Q      4.110000    2.910000    6.880000
  Q      4.540000    3.490000    7.290000
  Q      8.630000    6.150000   17.960000
  Q     10.060000    6.030000   17.400000
  Q      9.230000    6.150000   17.330000
  Q     14.660000   12.530000    2.400000
  Q     15.430000   12.920000    1.130000
  Q     14.970000   13.060000    1.830000
  Q      9.240000   18.170000   12.000000
  Q      8.620000   17.030000   12.930000
  Q      9.180000   17.620000   12.670000
  Q      4.680000   18.380000    6.160000
  Q      4.690000   19.860000    6.680000
  Q      4.410000   19.050000    6.640000
  Q      0.060000   13.630000    5.200000
  Q      0.840000   12.360000    5.880000
  Q      0.470000   12.850000    5.250000
  Q     17.220000    7.390000   10.070000
  Q     16.870000    6.310000   11.120000
  Q     17.380000    6.700000   10.560000
  Q      6.090000   10.700000    5.320000
  Q      7.110000   11.880000    5.080000
  Q      6.740000   11.230000    5.510000
  Q      3.200000    7.810000    5.710000
  Q      4.270000    7.600000    6.670000
  Q      3.930000    7.520000    5.940000
  Q     13.080000    2.390000   17.840000
  Q     14.040000    3.530000   17.670000
  Q     13.420000    3.150000   18.080000
  Q     14.240000   16.450000    9.590000
  Q     14.710000   17.370000   10.690000
  Q     14.310000   17.180000    9.940000
  Q      3.340000    2.780000   11.200000
  Q      4.460000    1.910000   11.330000
  Q      4.090000    2.620000   11.460000
  Q      3.890000    5.520000   12.290000
  Q      4.840000    4.570000   11.540000
  Q      4.630000    5.270000   11.980000
  Q     17.720000   16.520000    5.340000
  Q     17.810000   15.120000    5.890000
  Q     18.080000   15.920000    5.810000
  Q      6.060000    9.500000   15.050000
  Q      7.590000    9.560000   15.550000
  Q      6.770000    9.800000   15.490000
  Q      8.850000    7.770000   19.440000
  Q      7.940000    6.920000   20.380000
  Q      8.150000    7.310000   19.660000
  Q      5.220000   13.520000    3.760000
  Q      4.050000   14.140000    4.600000
  Q      4.700000   13.620000    4.430000
  Q     19.460000   16.670000    7.280000
  Q     19.130000   16.730000    8.730000
  Q     19.630000   16.800000    8.090000
  Q      7.630000    6.450000   13.210000
  Q      8.520000    7.540000   13.620000
  Q      8.110000    7.100000   13.060000
  Q     18.530000   17.150000   16.670000
  Q     18.530000   16.570000   15.170000
  Q     18.880000   16.780000   15.950000
  Q     11.660000   15.270000    4.730000
  Q     11.110000   15.920000    5.910000
  Q     11.710000   15.570000    5.490000
  Q     17.590000   12.800000    6.340000
  Q     17.620000   13.200000    4.810000
  Q     17.390000   13.250000    5.650000
  Q     15.510000    5.170000    7.370000
  Q     14.540000    6.020000    8.210000
  Q     15.160000    5.880000    7.610000
  Q      6.980000   14.040000   16.360000
  Q      5.700000   13.610000   15.550000
  Q      6.240000   14.180000   15.930000
  Q     11.680000   -0.220000   14.880000
  Q     11.530000    1.390000   14.620000
  Q     11.910000    0.580000   14.610000
  Q      5.630000    7.020000   11.470000
  Q      6.870000    7.960000   11.570000
  Q      6.060000    7.770000   11.490000
  Q     20.630000   14.750000   11.060000
  Q     20.870000   16.100000   11.580000
  Q     20.380000   15.510000   11.340000
  Q     14.800000    1.460000   10.740000
  Q     15.310000    1.040000   12.080000
  Q     15.400000    1.260000   11.290000
  Q     11.210000   16.830000    3.000000
  Q     12.040000   15.850000    2.160000
  Q     11.430000   16.080000    2.680000
  Q      8.900000   19.130000   13.760000
  Q      9.290000   20.110000   14.890000
  Q      9.020000   19.890000   14.100000
  Q     18.980000    8.870000   12.270000
  Q     18.820000    7.320000   11.810000
  Q     18.900000    7.970000   12.350000
  Q      2.620000   12.020000   16.720000
  Q      4.070000   11.990000   16.480000
  Q      3.390000   11.820000   16.940000
  Q     12.780000   19.060000   14.860000
  Q     13.760000   19.580000   15.810000
  Q     13.050000   19.590000   15.400000
  Q      1.560000    6.150000    7.820000
  Q      2.220000    4.870000    7.530000
  Q      1.970000    5.480000    8.020000
  Q      8.290000    5.330000    9.510000
  Q      7.340000    4.550000    8.830000
  Q      7.750000    5.240000    8.930000
  Q     20.940000   11.470000    4.410000
  Q     19.730000   10.570000    4.160000
  Q     20.510000   10.860000    4.030000
  Q     14.030000    9.390000   -0.290000
  Q     13.430000   10.170000    0.960000
  Q     14.000000    9.890000    0.400000
  Q     21.100000   14.020000   13.460000
  Q     21.950000   14.630000   14.590000
  Q     21.370000   14.100000   14.260000
  Q     15.160000   16.430000   15.730000
  Q     14.330000   17.020000   16.930000
  Q     14.980000   16.710000   16.530000
  Q     10.070000    9.050000   21.120000
  Q     10.250000    9.470000   19.610000
  Q     10.320000    8.950000   20.290000
  Q     11.390000   13.260000   18.330000
  Q     12.410000   12.280000   17.550000
  Q     11.660000   12.550000   17.860000
  Q     21.290000   11.010000   11.660000
  Q     21.180000   10.320000   13.010000
  Q     20.980000   10.460000   12.200000
  Q     10.300000   20.240000    5.100000
  Q      9.080000   19.470000    5.560000
  Q      9.530000   19.910000    5.000000
  Q     16.720000    7.070000   18.730000
  Q     16.790000    5.540000   18.490000
  Q     16.580000    6.350000   18.300000
  Q     19.280000    9.620000   15.160000
  Q     18.210000   10.560000   15.800000
  Q     18.500000    9.960000   15.260000
  Q     10.560000    2.170000   10.860000
  Q      9.800000    1.440000    9.850000
  Q      9.870000    1.950000   10.500000
  Q     17.100000   20.590000   13.890000
  Q     16.730000   19.130000   13.460000
  Q     17.040000   19.740000   13.970000
  Q     12.170000    4.220000    5.730000
  Q     12.540000    2.770000    5.180000
  Q     12.650000    3.530000    5.550000
  Q     10.080000   10.950000   17.960000
  Q     10.180000    9.700000   17.110000
  Q      9.880000   10.170000   17.720000
  Q      2.130000    8.610000   11.730000
  Q      1.710000    8.610000   13.160000
  Q      2.130000    8.890000   12.490000
  Q     11.280000   11.910000    0.890000
  Q     12.570000   12.820000    1.210000
  Q     12.060000   12.130000    1.240000
  Q      6.220000    9.570000   17.400000
  Q      6.790000    8.500000   18.310000
  Q      6.330000    9.200000   18.150000
  Q      5.720000    9.320000    2.460000
  Q      6.380000   10.240000    1.410000
  Q      5.730000    9.760000    1.740000
  Q     16.090000   14.850000   17.050000
  Q     16.950000   14.020000   16.160000
  Q     16.380000   14.130000   16.730000
  Q      2.520000   17.990000   14.090000
  Q      3.200000   17.620000   12.870000
  Q      3.120000   17.600000   13.670000
  Q     15.550000   10.430000    1.690000
  Q     16.560000    9.980000    2.760000
  Q     15.920000   10.450000    2.440000
  Q     18.830000   11.710000   17.590000
  Q     18.610000   10.200000   17.760000
  Q     18.350000   11.010000   17.630000
  Q      2.540000   14.480000   12.810000
  Q      3.090000   14.190000   11.370000
  Q      2.480000   14.270000   11.970000
  Q     12.750000   18.240000    7.360000
  Q     11.350000   18.470000    7.820000
  Q     12.120000   18.710000    7.680000
  Q     15.370000    0.850000   14.280000
  Q     13.800000    0.830000   14.100000
  Q     14.610000    1.070000   13.920000

----------------------------
CARTESIAN COORDINATES (A.U.)
----------------------------
  NO LB      ZA    FRAG     MASS         X           Y           Z
   0 C     6.0000    0    12.011   24.245186   19.709844   20.635809
   1 H     1.0000    0     1.008   24.094008   19.483076   18.689391
   2 H     1.0000    0     1.008   23.583782   17.914604   21.750748
   3 C     6.0000    0    12.011   22.317666   21.826337   20.881474
   4 H     1.0000    0     1.008   23.168042   23.092453   22.317666
   5 H     1.0000    0     1.008   22.506638   23.035762   19.142926
   6 C     6.0000    0    12.011   19.464179   21.335008   21.637364
   7 H     1.0000    0     1.008   18.746083   22.846789   22.657816
   8 H     1.0000    0     1.008   19.407487   19.615357   22.790097
   9 C     6.0000    0    12.011   17.631145   21.089344   19.558665
  10 H     1.0000    0     1.008   18.027987   19.558665   18.198063
  11 H     1.0000    0     1.008   17.725631   22.884583   18.538213
  12 O     8.0000    0    15.999   15.023323   20.919268   20.711398
  13 H     1.0000    0     1.008   14.002871   20.106686   19.520871
  14 O     8.0000    0    15.999   26.871906   20.144481   20.919268
  15 H     1.0000    0     1.008   26.985289   20.938166   22.714508
  16 O     8.0000    0    15.999   28.686043   20.900371   25.492406
  17 H     1.0000    0     1.008   28.988399   22.676714   24.944385
  18 H     1.0000    0     1.008   29.668700   19.539768   24.509748
  19 O     8.0000    0    15.999   22.638919   26.777419   25.832556
  20 H     1.0000    0     1.008   21.807440   27.930152   24.698721
  21 H     1.0000    0     1.008   24.396364   26.626241   25.246741
  22 O     8.0000    0    15.999   19.879919   14.607583   16.194953
  23 H     1.0000    0     1.008   20.824782   16.062672   16.005980
  24 H     1.0000    0     1.008   18.273652   15.061117   15.457960
  25 O     8.0000    0    15.999   16.062672   26.607344   21.901926
  26 H     1.0000    0     1.008   15.080015   27.457721   23.130248
  27 H     1.0000    0     1.008   15.779213   24.887693   22.563330
  28 O     8.0000    0    15.999   25.379022   14.154049   25.416817
  29 H     1.0000    0     1.008   25.038871   15.439063   26.626241
  30 H     1.0000    0     1.008   26.928597   14.720967   24.585337
  31 O     8.0000    0    15.999   31.482837   22.185385   19.407487
  32 H     1.0000    0     1.008   29.725392   21.542878   19.615357
  33 H     1.0000    0     1.008   32.522187   21.845234   20.938166
  34 O     8.0000    0    15.999   29.290755   15.949289   18.311446
  35 H     1.0000    0     1.008   28.761632   17.347686   19.331898
  36 H     1.0000    0     1.008   28.383687   16.100467   16.724076
  37 O     8.0000    0    15.999   22.790097   18.594905   14.777658
  38 H     1.0000    0     1.008   22.922378   20.220070   13.870590
  39 H     1.0000    0     1.008   24.150700   17.479967   14.286330
  40 O     8.0000    0    15.999   29.555317   27.060878   17.801220
  41 H     1.0000    0     1.008   30.178926   25.341227   18.160268
  42 H     1.0000    0     1.008   28.402584   26.645138   16.383926
  43 O     8.0000    0    15.999   28.100228   11.243870   20.673604
  44 H     1.0000    0     1.008   26.531755   10.658055   21.278316
  45 H     1.0000    0     1.008   28.081330   13.171391   20.314556
  46 O     8.0000    0    15.999   30.178926   15.401268   24.226289
  47 H     1.0000    0     1.008   30.103337   14.834350   26.002632
  48 H     1.0000    0     1.008   31.841885   15.193398   23.621577
  49 O     8.0000    0    15.999   11.848583   18.009090   17.177611
  50 H     1.0000    0     1.008   11.168281   16.894152   18.500419
  51 H     1.0000    0     1.008   13.190288   17.120919   16.176056
  52 O     8.0000    0    15.999   26.229399   19.161823   29.725392
  53 H     1.0000    0     1.008   26.758522   20.012200   31.256070
  54 H     1.0000    0     1.008   27.401029   19.615357   28.421481
  55 O     8.0000    0    15.999    8.995096   22.147590   15.571343
  56 H     1.0000    0     1.008    9.675398   23.224734   14.324124
  57 H     1.0000    0     1.008   10.128932   20.654707   15.817008
  58 O     8.0000    0    15.999   20.673604   10.714747   11.659610
  59 H     1.0000    0     1.008   20.465734   11.073795   13.435953
  60 H     1.0000    0     1.008   19.180720   11.357254   10.771439
  61 O     8.0000    0    15.999   27.986844   25.964837   23.451501
  62 H     1.0000    0     1.008   28.610454   27.382132   24.396364
  63 H     1.0000    0     1.008   28.138022   26.418371   21.694056
  64 O     8.0000    0    15.999   14.909939   14.834350   14.494199
  65 H     1.0000    0     1.008   14.777658   13.398158   15.571343
  66 H     1.0000    0     1.008   14.985528   13.889487   12.850138
  67 O     8.0000    0    15.999   25.927043   24.868796   29.933262
  68 H     1.0000    0     1.008   27.571104   25.114460   30.764741
  69 H     1.0000    0     1.008   26.323885   23.508193   28.704940
  70 O     8.0000    0    15.999   34.638680   22.865686   15.495754
  71 H     1.0000    0     1.008   34.298529   21.448392   14.399713
  72 H     1.0000    0     1.008   33.542639   22.393255   16.818563
  73 O     8.0000    0    15.999   14.229638   24.396364   14.815453
  74 H     1.0000    0     1.008   13.606028   25.756967   13.813898
  75 H     1.0000    0     1.008   13.776104   22.884583   13.927282
  76 O     8.0000    0    15.999   12.188734   30.027748   19.823227
  77 H     1.0000    0     1.008   13.171391   28.667145   19.237412
  78 H     1.0000    0     1.008   12.037555   30.972611   18.235857
  79 O     8.0000    0    15.999   21.316111   16.176056    9.543117
  80 H     1.0000    0     1.008   22.072001   14.531994    9.902165
  81 H     1.0000    0     1.008   21.164933   17.007535   11.206076
  82 O     8.0000    0    15.999   22.997967   10.393494   22.279871
  83 H     1.0000    0     1.008   23.583782   11.527329   23.640474
  84 H     1.0000    0     1.008   21.391700   10.884823   21.996412
  85 O     8.0000    0    15.999   18.972850   26.399474   15.760316
  86 H     1.0000    0     1.008   19.029542   26.815214   17.498864
  87 H     1.0000    0     1.008   17.347686   25.586892   15.590241
  88 O     8.0000    0    15.999   20.824782   18.273652   28.553762
  89 H     1.0000    0     1.008   20.220070   19.955508   28.043536
  90 H     1.0000    0     1.008   22.431049   18.557111   29.366344
  91 O     8.0000    0    15.999   13.568234   22.752303   25.416817
  92 H     1.0000    0     1.008   13.454850   21.297214   26.512858
  93 H     1.0000    0     1.008   13.473747   21.958618   23.753858
  94 O     8.0000    0    15.999   18.009090   11.300562   20.446837
  95 H     1.0000    0     1.008   16.875254   11.867480   21.901926
  96 H     1.0000    0     1.008   18.670494   12.755651   19.520871
  97 O     8.0000    0    15.999   18.292549   23.432604   27.986844
  98 H     1.0000    0     1.008   19.539768   24.604234   27.268748
  99 H     1.0000    0     1.008   16.837460   23.659371   26.871906
 100 O     8.0000    0    15.999   20.635809   28.289200   20.182275
 101 H     1.0000    0     1.008   19.105131   28.024639   21.259419
 102 H     1.0000    0     1.008   20.805885   30.178926   20.238967
 103 O     8.0000    0    15.999   13.606028   30.122235   25.208947
 104 H     1.0000    0     1.008   12.377706   29.423036   26.437269
 105 H     1.0000    0     1.008   12.547782   30.726947   23.772755
 106 O     8.0000    0    15.999   34.355221   21.316111   23.602679
 107 H     1.0000    0     1.008   34.374118   20.465734   25.190049
 108 H     1.0000    0     1.008   35.923694   20.938166   22.884583
 109 Q     0.6645    0     0.000   28.421481    5.291233   14.872145
 110 Q     0.6645    0     0.000   27.117570    5.706973   12.321014
 111 Q    -1.3290    0     0.000   28.364789    5.385719   13.284775
 112 Q     0.6645    0     0.000   33.561536   14.248535    8.465973
 113 Q     0.6645    0     0.000   33.656022   13.209186   11.413946
 114 Q    -1.3290    0     0.000   33.618228   13.209186    9.750987
 115 Q     0.6645    0     0.000   34.166249   33.618228   35.772516
 116 Q     0.6645    0     0.000   32.087550   31.974166   34.563091
 117 Q    -1.3290    0     0.000   33.429255   32.843440   34.600886
 118 Q     0.6645    0     0.000    6.500658   14.720967    5.858151
 119 Q     0.6645    0     0.000    5.083363   16.251645    4.081808
 120 Q    -1.3290    0     0.000    5.593589   15.892597    5.536898
 121 Q     0.6645    0     0.000    6.991987   22.771200   26.758522
 122 Q     0.6645    0     0.000    9.769884   22.468844   27.212056
 123 Q    -1.3290    0     0.000    8.352590   23.073556   27.476618
 124 Q     0.6645    0     0.000    8.730535   24.509748   18.840570
 125 Q     0.6645    0     0.000    9.524220   27.401029   19.313001
 126 Q    -1.3290    0     0.000    8.503768   26.116015   19.105131
 127 Q     0.6645    0     0.000    5.329028   23.545988   14.720967
 128 Q     0.6645    0     0.000    2.362158   24.094008   15.250090
 129 Q    -1.3290    0     0.000    3.741658   23.867241   14.343021
 130 Q     0.6645    0     0.000   30.481283   20.654707   33.996173
 131 Q     0.6645    0     0.000   28.156919   19.313001   35.035523
 132 Q    -1.3290    0     0.000   28.950604   20.541323   34.374118
 133 Q     0.6645    0     0.000   13.851693    2.475541   23.886138
 134 Q     0.6645    0     0.000   15.892597    3.836144   22.393255
 135 Q    -1.3290    0     0.000   14.569788    3.760555   23.281426
 136 Q     0.6645    0     0.000    8.730535   10.733644   30.292310
 137 Q     0.6645    0     0.000    8.069131    8.371487   28.232508
 138 Q    -1.3290    0     0.000    8.938405    9.391939   29.252961
 139 Q     0.6645    0     0.000    0.113384    9.429733   23.451501
 140 Q     0.6645    0     0.000    0.170075   11.527329   21.599570
 141 Q    -1.3290    0     0.000    0.850377   10.563569   22.657816
 142 Q     0.6645    0     0.000   40.440139   24.717618   18.897261
 143 Q     0.6645    0     0.000   42.065304   24.831001   21.410597
 144 Q    -1.3290    0     0.000   40.742495   24.679823   20.503529
 145 Q     0.6645    0     0.000   17.706734   32.578879   13.851693
 146 Q     0.6645    0     0.000   18.972850   30.556872   15.401268
 147 Q    -1.3290    0     0.000   18.953953   31.785194   14.418610
 148 Q     0.6645    0     0.000    6.689631   27.155365   27.892358
 149 Q     0.6645    0     0.000    5.782562   29.819878   27.079775
 150 Q    -1.3290    0     0.000    5.593589   28.251406   27.590002
 151 Q     0.6645    0     0.000   14.796556   32.578879   34.563091
 152 Q     0.6645    0     0.000   17.120919   33.315872   36.244947
 153 Q    -1.3290    0     0.000   16.043775   32.352111   35.564646
 154 Q     0.6645    0     0.000    1.058247   20.201172   17.631145
 155 Q     0.6645    0     0.000    3.325918   18.727186   18.500419
 156 Q    -1.3290    0     0.000    2.532233   20.012200   18.141371
 157 Q     0.6645    0     0.000    3.873939    8.220309   18.254754
 158 Q     0.6645    0     0.000    2.891281    8.050233   20.900371
 159 Q    -1.3290    0     0.000    3.628274    7.502213   19.653152
 160 Q     0.6645    0     0.000   29.744289   15.306782    3.477096
 161 Q     0.6645    0     0.000   31.312762   13.133597    2.324363
 162 Q    -1.3290    0     0.000   30.915920   14.683172    2.513336
 163 Q     0.6645    0     0.000   18.632700    7.143165   14.229638
 164 Q     0.6645    0     0.000   18.840570    6.443966   16.931946
 165 Q    -1.3290    0     0.000   19.483076    6.821911   15.552446
 166 Q     0.6645    0     0.000   15.779213   18.840570    8.881713
 167 Q     0.6645    0     0.000   17.933501   17.177611    7.861261
 168 Q    -1.3290    0     0.000   16.459515   17.725631    7.936850
 169 Q     0.6645    0     0.000   10.676953    5.480206   18.387035
 170 Q     0.6645    0     0.000   13.076905    5.102261   19.879919
 171 Q    -1.3290    0     0.000   12.245425    5.423514   18.576008
 172 Q     0.6645    0     0.000   25.341227   15.873700   35.942591
 173 Q     0.6645    0     0.000   23.564885   17.839015   37.378783
 174 Q    -1.3290    0     0.000   24.812104   17.347686   36.452817
 175 Q     0.6645    0     0.000   28.289200    8.409281   24.642029
 176 Q     0.6645    0     0.000   27.797871    5.820356   26.040426
 177 Q    -1.3290    0     0.000   28.326995    7.369932   25.870351
 178 Q     0.6645    0     0.000    6.292788   19.804330    8.050233
 179 Q     0.6645    0     0.000    7.672288   22.223179    8.862816
 180 Q    -1.3290    0     0.000    7.048678   20.786987    9.070685
 181 Q     0.6645    0     0.000   36.622892   12.774549   29.120680
 182 Q     0.6645    0     0.000   39.362995   12.037555   28.421481
 183 Q    -1.3290    0     0.000   38.134673   12.321014   29.423036
 184 Q     0.6645    0     0.000   35.734721   17.650042   11.867480
 185 Q     0.6645    0     0.000   37.529961   15.665830   10.676953
 186 Q    -1.3290    0     0.000   37.133119   17.026432   11.489535
 187 Q     0.6645    0     0.000   38.928358   10.695850   14.437508
 188 Q     0.6645    0     0.000   39.722043   13.322569   13.700514
 189 Q    -1.3290    0     0.000   38.720488   12.226528   14.267432
 190 Q     0.6645    0     0.000   22.638919    9.032891   16.667385
 191 Q     0.6645    0     0.000   23.375912   11.111590   18.273652
 192 Q    -1.3290    0     0.000   23.564885   10.242316   16.950843
 193 Q     0.6645    0     0.000   11.829686    8.825021   25.908145
 194 Q     0.6645    0     0.000   13.813898    7.048678   24.944385
 195 Q    -1.3290    0     0.000   13.322569    8.390384   25.624686
 196 Q     0.6645    0     0.000   15.854802   11.961966    3.363713
 197 Q     0.6645    0     0.000   18.368138   13.190288    4.289678
 198 Q    -1.3290    0     0.000   16.856357   12.661165    4.421959
 199 Q     0.6645    0     0.000   17.196508   19.728741    1.398397
 200 Q     0.6645    0     0.000   17.064227   18.009090    3.722760
[...]
 347   Q   :   -0.178822021   -0.088947543    0.171098468
 348   Q   :    0.269759779    0.017811586   -0.001133108
 349   Q   :   -0.088334437    0.066953682   -0.177702846
 350   Q   :    0.114247455   -0.223650011    0.078419502
 351   Q   :   -0.043344432    0.090686961   -0.249561812
 352   Q   :   -0.075423604    0.140432405    0.167713849
 353   Q   :   -0.042562607   -0.231436889   -0.144745677
 354   Q   :    0.029416180    0.231373672   -0.090417163
 355   Q   :    0.009026893   -0.012474422    0.226998446
 356   Q   :    0.250552697   -0.121184524   -0.116569796
 357   Q   :   -0.241666786   -0.124033402   -0.067757347
 358   Q   :   -0.001638535    0.248339744    0.175059631
 359   Q   :    0.261975572    0.014688153    0.026291021
 360   Q   :   -0.189440399    0.185169969   -0.157360840
 361   Q   :   -0.081639529   -0.191430134    0.124986153
 362   Q   :   -0.012273448    0.257318819   -0.132853714
 363   Q   :    0.206830178   -0.127402677    0.111787347
 364   Q   :   -0.199182383   -0.130892443    0.024812434
 365   Q   :   -0.099547928   -0.087339199   -0.256986011
 366   Q   :   -0.134794462   -0.135169101    0.256621943
 367   Q   :    0.238641400    0.209049135    0.001279043
 368   Q   :    0.279976159   -0.034670054   -0.072730618
 369   Q   :   -0.208348100   -0.109413680   -0.186194975
 370   Q   :   -0.054605914    0.148797357    0.265261510
 371   Q   :    0.167543121   -0.074620905    0.203724268
 372   Q   :   -0.041917241    0.259191548   -0.085363067
 373   Q   :   -0.123968309   -0.190949144   -0.120190366
 374   Q   :   -0.138189998    0.242785997   -0.046016406
 375   Q   :   -0.102383842   -0.244019965    0.094033203
 376   Q   :    0.229388961    0.000113044   -0.040652821
 377   Q   :   -0.200420711   -0.105233082   -0.173481177
 378   Q   :    0.016871879   -0.069130465    0.298220485
 379   Q   :    0.185914428    0.178554164   -0.128471839
 380   Q   :    0.009913928    0.314787442   -0.027173675
 381   Q   :    0.213162530   -0.162690750   -0.122862048
 382   Q   :   -0.214209842   -0.149932736    0.153559568
 383   Q   :   -0.060407614   -0.149353162   -0.254545985
 384   Q   :   -0.192456570    0.169070120    0.144469835
 385   Q   :    0.253439578   -0.009597475    0.113937001
 386   Q   :   -0.194533045    0.215588343    0.069481138
 387   Q   :    0.217223467    0.018573769   -0.121173054
 388   Q   :   -0.024109433   -0.226812942    0.042412496
 389   Q   :   -0.165019172    0.008171453   -0.224655170
 390   Q   :    0.072143430    0.226473776    0.133762745
 391   Q   :    0.091120951   -0.250382976    0.091825927
 392   Q   :    0.024486073   -0.246638468   -0.087403503
 393   Q   :    0.184832858    0.143662070    0.172785594
 394   Q   :   -0.209737196    0.117092140   -0.077026065
 395   Q   :    0.123183026    0.216033774    0.090049778
 396   Q   :   -0.161640595   -0.010797106   -0.288831029
 397   Q   :    0.026970182   -0.217099671    0.192704510
 398   Q   :    0.234406990    0.183883345   -0.068877253
 399   Q   :    0.051875796   -0.292407011    0.020788271
 400   Q   :   -0.296625641    0.104086463    0.052014572
 401   Q   :    0.252027331    0.123072422   -0.038297181
 402   Q   :   -0.060728474   -0.167227372    0.214630068
 403   Q   :   -0.196720585    0.039824645   -0.168811353
 404   Q   :    0.082238545    0.221770312    0.178510503
 405   Q   :   -0.217814497   -0.046816148   -0.196978543
 406   Q   :    0.126716604   -0.179413758    0.027119990
 407   Q   :   -0.159531092   -0.146672419    0.154325454
 408   Q   :    0.095137785   -0.098080129   -0.256879846
 409   Q   :    0.076471504    0.245491360    0.094138828
 410   Q   :    0.094072112   -0.167437674   -0.194127314
 411   Q   :   -0.293438662    0.086742186   -0.001486893
 412   Q   :    0.189055876    0.083191002    0.198232926
 413   Q   :    0.107976621   -0.261178773   -0.048039861
 414   Q   :    0.167238696    0.234463847    0.099124220
 415   Q   :   -0.267007416    0.018843361   -0.046292318
 416   Q   :   -0.161596268   -0.130553899   -0.179610663
 417   Q   :    0.003197758    0.249304753    0.080370715
 418   Q   :    0.167301195   -0.124504263    0.092177756
 419   Q   :    0.110763227    0.227690851    0.120827883
 420   Q   :   -0.126001528   -0.019865457   -0.207653106
 421   Q   :    0.024088048   -0.210404956    0.092073272
 422   Q   :    0.214767096   -0.051430258   -0.137188037
 423   Q   :   -0.261374673   -0.096374820   -0.031728921
 424   Q   :    0.037609651    0.133553483    0.164349145
 425   Q   :    0.275160092   -0.048142531   -0.032413860
 426   Q   :   -0.176259926   -0.184484296   -0.011464403
 427   Q   :   -0.085229876    0.231736414    0.050752673
 428   Q   :   -0.002711604   -0.049880680    0.306743780
 429   Q   :   -0.046547057   -0.244777748   -0.192954013
 430   Q   :    0.053404323    0.296289760   -0.113741339
 431   Q   :   -0.104383516   -0.137747938   -0.150320017
 432   Q   :   -0.089189959    0.208945124    0.129120029
 433   Q   :    0.200771218   -0.073573404    0.018933991
 434   Q   :    0.060286628   -0.180797506   -0.152474391
 435   Q   :   -0.150480055    0.212137435   -0.042352434
 436   Q   :    0.082220597   -0.015293441    0.195018072
 437   Q   :    0.253489658    0.151129448    0.021917699
 438   Q   :   -0.125688925   -0.051582235   -0.250891765
 439   Q   :   -0.125906094   -0.098593286    0.229223500
 440   Q   :   -0.180584861   -0.195129602   -0.107895156
 441   Q   :    0.280903516   -0.026537999   -0.096033882
 442   Q   :   -0.105260768    0.232805051    0.214793198
 443   Q   :    0.147242388   -0.211577919    0.087346059
 444   Q   :    0.063196018    0.255995504    0.156641005
 445   Q   :   -0.212532239   -0.034506420   -0.231385541
 446   Q   :    0.072197014    0.043832932    0.280673190
 447   Q   :    0.019673489    0.146910337   -0.219245166
 448   Q   :   -0.099660141   -0.193299324   -0.056723375
 449   Q   :   -0.285567151    0.120296780    0.023990446
 450   Q   :    0.199596537    0.127626517   -0.155056982
 451   Q   :    0.085835881   -0.243908526    0.130398974
 452   Q   :    0.054540230    0.058524159   -0.287182770
 453   Q   :   -0.273192162    0.006560640    0.110875929
 454   Q   :    0.220745190   -0.065823823    0.182138742
 455   Q   :    0.272501665    0.118864998   -0.168365834
 456   Q   :   -0.214874616   -0.109493076   -0.200235956
 457   Q   :   -0.043415908   -0.009856397    0.364453411
 458   Q   :    0.246132080    0.161555774   -0.133848865
 459   Q   :   -0.157474323   -0.203647689   -0.170841826
 460   Q   :   -0.087945364    0.044938788    0.307336488
 461   Q   :   -0.172339677   -0.008723673    0.191485005
 462   Q   :    0.273699424   -0.039720582    0.023811490
 463   Q   :   -0.101161134    0.051429434   -0.213053308
 464   Q   :   -0.109753154   -0.189149737    0.193962648
 465   Q   :    0.153558117   -0.061387059   -0.234486399
 466   Q   :   -0.038564568    0.243361830    0.033173566
 467   Q   :    0.006436388    0.161000127   -0.206931524
 468   Q   :   -0.182619716   -0.182609261    0.068970638
 469   Q   :    0.177056294    0.009719384    0.126421999
 470   Q   :    0.097331159   -0.197273807   -0.150441814
 471   Q   :    0.113541596    0.269612352   -0.001109404
 472   Q   :   -0.212712419   -0.065391022    0.157334958
 473   Q   :   -0.129709949    0.258759400   -0.004638645
 474   Q   :    0.093780712   -0.138416601    0.192447316
 475   Q   :    0.027950219   -0.118076067   -0.190456158
 476   Q   :   -0.054456876    0.217219530   -0.142543675
 477   Q   :   -0.167294370   -0.114700927    0.187916126
 478   Q   :    0.225238754   -0.098980959   -0.043607612
 479   Q   :   -0.202901029   -0.167189846   -0.075997943
 480   Q   :    0.113440201    0.205190587   -0.144950374
 481   Q   :    0.086171174   -0.042690642    0.220929490
 482   Q   :   -0.274514003    0.108130525   -0.070812486
 483   Q   :    0.121421939    0.041084978    0.276356064
 484   Q   :    0.158988315   -0.136084436   -0.208849489
 485   Q   :   -0.098500169   -0.245968634   -0.089443644
 486   Q   :    0.212885930    0.118030877   -0.151192728
 487   Q   :   -0.113741783    0.120652606    0.243971871
 488   Q   :   -0.018857256   -0.283190852   -0.117314720
 489   Q   :    0.117965608    0.045513113    0.229416024
 490   Q   :   -0.094796444    0.230890425   -0.109428103
 491   Q   :   -0.277739437    0.030185803   -0.103549329
 492   Q   :    0.129634631   -0.286927362   -0.067047845
 493   Q   :    0.150800957    0.242838035    0.179847397
 494   Q   :   -0.270512964    0.076751568    0.104530603
 495   Q   :    0.059877809   -0.223312970   -0.148466786
 496   Q   :    0.208340075    0.145302594    0.043281490
 497   Q   :   -0.146462211    0.202322119   -0.175505332
 498   Q   :   -0.104092110   -0.246899373    0.011760440
 499   Q   :    0.244929857    0.053659764    0.158338087
 500   Q   :   -0.189248508   -0.086209724   -0.122989697
 501   Q   :    0.257082613   -0.070244830    0.008574381
 502   Q   :   -0.064136588    0.162667781    0.122225203
 503   Q   :    0.214624188    0.132098405   -0.063138275
 504   Q   :   -0.060977084   -0.137526159    0.259696291
 505   Q   :   -0.160568750    0.004479894   -0.189166445
 506   Q   :    0.173085556   -0.019525966   -0.224982009
 507   Q   :   -0.195712899    0.169617113    0.043465758
 508   Q   :    0.016250803   -0.156490356    0.176470834
 509   Q   :   -0.065324627   -0.046541985   -0.276666650
 510   Q   :   -0.190164581   -0.028554872    0.225979087
 511   Q   :    0.269769789    0.084253506    0.048703088
 512   Q   :   -0.167764380   -0.228939421    0.058087667
 513   Q   :    0.146931991    0.147795532    0.197765666
 514   Q   :    0.018684776    0.092386462   -0.249419243
 515   Q   :   -0.108281711    0.109985243    0.192350634
 516   Q   :   -0.110185458   -0.058527776   -0.220176027
 517   Q   :    0.227870188   -0.048438452    0.028951562
 518   Q   :   -0.029789019   -0.111182181   -0.282221407
 519   Q   :   -0.233054474    0.129131075    0.137629113
 520   Q   :    0.259608341   -0.028332936    0.143459614
 521   Q   :    0.069055662   -0.158806042    0.216642781
 522   Q   :    0.069298164   -0.014751946   -0.243206475
 523   Q   :   -0.135761102    0.164238832    0.032036302
 524   Q   :    0.124835687   -0.262468649   -0.075785119
 525   Q   :   -0.177663444    0.037470871    0.180360365
 526   Q   :    0.055388631    0.212888049   -0.107192719
 527   Q   :    0.209371148   -0.055996273    0.127313830
 528   Q   :   -0.158248513   -0.181564274   -0.115742416
 529   Q   :   -0.059701459    0.226729643   -0.014059816
 530   Q   :   -0.080620297   -0.250118333    0.085962683
 531   Q   :   -0.118489579    0.207312360    0.000950389
 532   Q   :    0.182176288    0.031084537   -0.080479620
 533   Q   :   -0.120378563   -0.227878266   -0.012677391
 534   Q   :    0.283486249    0.061867861    0.011551724
 535   Q   :   -0.155888388    0.168225069   -0.008768317
 536   Q   :    0.098137319   -0.232314311   -0.082870070
 537   Q   :    0.215924038    0.228611428    0.099837189
 538   Q   :   -0.307290045    0.010226821   -0.010289119
 539   Q   :   -0.218410138    0.064844613   -0.186863995
 540   Q   :   -0.044728378   -0.084511108    0.281208823
 541   Q   :    0.273134357    0.010671150   -0.100261864
 542   Q   :   -0.066393757    0.262721566    0.104486647
 543   Q   :    0.220120400   -0.073230042   -0.189924637
 544   Q   :   -0.155302075   -0.188702586    0.077115904
 545   Q   :   -0.039875108   -0.260102657   -0.100836367
 546   Q   :    0.088640637    0.055819879    0.261906913
 547   Q   :   -0.052928520    0.213069360   -0.150156647
 548   Q   :    0.011503333    0.253909003   -0.031291098
 549   Q   :   -0.034850384   -0.203076707   -0.179201489
 550   Q   :    0.031998829   -0.051876281    0.216237376
 551   Q   :   -0.268406871    0.081473053   -0.093525092
 552   Q   :    0.227171546    0.068279212   -0.165404871
 553   Q   :    0.053128508   -0.139114138    0.269268524
 554   Q   :   -0.089169121   -0.227114172   -0.214882536
 555   Q   :    0.265711018   -0.024242966    0.140576473
 556   Q   :   -0.179340190    0.253443706    0.075687344
 557   Q   :   -0.152623482    0.246255894   -0.081175229
 558   Q   :    0.088116801   -0.221599155   -0.193366261
 559   Q   :    0.052689101   -0.027287909    0.270984041
 560   Q   :    0.204190955    0.016299082    0.226107035
 561   Q   :   -0.145676682   -0.263539373   -0.032210825
 562   Q   :   -0.060931010    0.236811040   -0.200821091
 563   Q   :    0.140215637    0.227630235    0.144567748
 564   Q   :   -0.277119750   -0.082850750    0.048912266
 565   Q   :    0.139205014   -0.142022204   -0.192119772
 566   Q   :   -0.002605254   -0.168100093   -0.236211273
 567   Q   :   -0.195047703    0.088766894    0.185205088
 568   Q   :    0.193855334    0.071780341    0.039220173
 569   Q   :   -0.076149586   -0.015263985   -0.281119708
 570   Q   :    0.204267830    0.186363885    0.091198775
 571   Q   :   -0.121936204   -0.169973514    0.191020689
 572   Q   :    0.044185932   -0.086253110   -0.237976299
 573   Q   :   -0.246362459    0.117456800    0.133907885
 574   Q   :    0.194965791   -0.029730702    0.107983154
 575   Q   :   -0.081370073    0.040079961    0.259475198
 576   Q   :   -0.021342044    0.172612013   -0.197893759
 577   Q   :    0.108047136   -0.215577917   -0.046618991
 578   Q   :   -0.058894410    0.196853343    0.129526810
 579   Q   :    0.259152962   -0.086047892   -0.093745222
 580   Q   :   -0.190676362   -0.115834842   -0.036984403
 581   Q   :    0.121595778    0.200753067   -0.173875287
 582   Q   :    0.078128959   -0.026400516    0.268237742
 583   Q   :   -0.183587374   -0.173385243   -0.095881547
 584   Q   :    0.255601136    0.101460019    0.052306104
 585   Q   :   -0.136156129   -0.151388732    0.207332559
 586   Q   :   -0.119686839    0.049890468   -0.263645153
 587   Q   :    0.051778217    0.235365432    0.156296932
 588   Q   :    0.067162237   -0.256038039    0.073306338
 589   Q   :   -0.112961204    0.025312050   -0.227330782
 590   Q   :    0.244732464   -0.102323686   -0.020685449
 591   Q   :   -0.079625333    0.186043485    0.164673261
 592   Q   :   -0.166943832   -0.079130098   -0.146150944
 593   Q   :    0.268460528    0.074652172    0.125363188
 594   Q   :   -0.008703897   -0.186421347   -0.232063948
 595   Q   :   -0.257296337    0.109708615    0.102797484
 596   Q   :    0.012749408    0.284588636   -0.043332807
 597   Q   :   -0.109397475   -0.183510929   -0.189908202
 598   Q   :    0.099131992   -0.096293487    0.223530605
 599   Q   :   -0.153315243    0.203391539    0.043162853
 600   Q   :   -0.051762279   -0.256830276   -0.129340021
 601   Q   :    0.200813318    0.050431686    0.084038855
 602   Q   :    0.076565706    0.259453909    0.078894621
 603   Q   :    0.123007220   -0.166882262   -0.222720429
 604   Q   :   -0.207798177   -0.095711177    0.138680896
 605   Q   :   -0.011734305   -0.117863460   -0.283996840
 606   Q   :   -0.150498189   -0.103005492    0.212968898
 607   Q   :    0.161466081    0.220055645    0.073180154
 608   Q   :   -0.236636256   -0.051991625   -0.108197238
 609   Q   :    0.153492823    0.237645045   -0.011802169
 610   Q   :    0.080381854   -0.179938806    0.114272268
 611   Q   :   -0.028785629    0.115533154   -0.254444371
 612   Q   :    0.160614283   -0.230073381    0.031330352
 613   Q   :   -0.140698721    0.109033665    0.225598116
 614   Q   :    0.012069686   -0.132448486    0.248238746
 615   Q   :    0.204240785    0.137860642   -0.075145159
 616   Q   :   -0.222455783   -0.006955222   -0.166968067
 617   Q   :   -0.089496164    0.246524713    0.101137899
 618   Q   :    0.209530246   -0.024846551   -0.214335543
 619   Q   :   -0.112243615   -0.217958024    0.114976368
 620   Q   :   -0.218617830    0.147599270    0.137252296
 621   Q   :    0.019696989    0.018018370   -0.317737028
 622   Q   :    0.199917656   -0.155636351    0.173712548
 623   Q   :   -0.111783261   -0.003630407   -0.254673922
 624   Q   :    0.203810301   -0.150422551    0.091616186
 625   Q   :   -0.091872460    0.151598429    0.160567187
 626   Q   :    0.166686627    0.201807855   -0.012181847
 627   Q   :    0.099201042   -0.262198248    0.040239409
 628   Q   :   -0.266701812    0.056918854   -0.015032936
 629   Q   :    0.033325661    0.061914557    0.240859900
 630   Q   :    0.192715073   -0.015983858   -0.168378625
 631   Q   :   -0.234771175   -0.037117106   -0.082270997
 632   Q   :    0.193857665   -0.154949518   -0.109718511
 633   Q   :   -0.282850689   -0.088130197    0.044215558
 634   Q   :    0.080529879    0.246092939    0.069124214
 635   Q   :    0.233037976   -0.078613943    0.118588094
 636   Q   :   -0.236712590   -0.083282406    0.055976648
 637   Q   :    0.010875010    0.153563573   -0.172724733

Difference to translation invariance:
           :    0.0004878735    0.0005158976   -0.0007390521

Difference to rotation invariance:
           :   -0.0295156919    0.0327038541    0.0058023474

Norm of the cartesian gradient     ...    6.3795083055
RMS gradient                       ...    0.1459341267
MAX gradient                       ...    0.3644534107

-------
TIMINGS
-------

Total SCF gradient time            ...      212.829 sec

One electron gradient       ....      25.423 sec  ( 11.9%)
RI-J Coulomb gradient       ....      11.074 sec  (  5.2%)
COSX gradient               ....     135.207 sec  ( 63.5%)
XC gradient                 ....      16.093 sec  (  7.6%)

Maximum memory used throughout the entire SCFGRAD-calculation: 845.0 MB

                            ***************************************
                            *     ORCA property calculations      *
                            ***************************************

                                    ---------------------
                                    Active property flags
                                    ---------------------
   (+) Dipole Moment


------------------------------------------------------------------------------
                       ORCA ELECTRIC PROPERTIES CALCULATION
------------------------------------------------------------------------------

Dipole Moment Calculation                       ... on
Quadrupole Moment Calculation                   ... off
Polarizability Calculation                      ... off
GBWName                                         ... final071.orca.gbw
Electron density                                ... final071.orca.scfp
The origin for moment calculation is the CENTER OF MASS  = (21.911815, 20.534382 20.684972)

-------------
DIPOLE MOMENT
-------------
                                X             Y             Z
Electronic contribution:      0.27288      -0.66101       1.57293
Nuclear contribution   :     -6.68930      -4.44023     -20.33894
                        -----------------------------------------
Total Dipole Moment    :     -6.41642      -5.10124     -18.76601
                        -----------------------------------------
Magnitude (a.u.)       :     20.47819
Magnitude (Debye)      :     52.05143



--------------------
Rotational spectrum 
--------------------
 
Rotational constants in cm-1:     0.001838     0.001461     0.001181 
Rotational constants in MHz :    55.100021    43.791856    35.408570 

 Dipole components along the rotational axes: 
x,y,z [a.u.] :    -8.686544   -15.780304    -9.740757 
x,y,z [Debye]:   -22.079440   -40.110345   -24.759038 

 

Timings for individual modules:

Sum of individual times         ...      865.390 sec (=  14.423 min)
GTO integral calculation        ...       13.196 sec (=   0.220 min)   1.5 %
SCF iterations                  ...      635.381 sec (=  10.590 min)  73.4 %
SCF Gradient evaluation         ...      216.813 sec (=   3.614 min)  25.1 %
                             ****ORCA TERMINATED NORMALLY****
TOTAL RUN TIME: 0 days 0 hours 14 minutes 33 seconds 431 msec
