
                                 *****************
                                 * O   R   C   A *
                                 *****************

                                            #,                                       
                                            ###                                      
                                            ####                                     
                                            #####                                    
                                            ######                                   
                                           ########,                                 
                                     ,,################,,,,,                         
                               ,,#################################,,                 
                          ,,##########################################,,             
                       ,#########################################, ''#####,          
                    ,#############################################,,   '####,        
                  ,##################################################,,,,####,       
                ,###########''''           ''''###############################       
              ,#####''   ,,,,##########,,,,          '''####'''          '####       
            ,##' ,,,,###########################,,,                        '##       
           ' ,,###''''                  '''############,,,                           
         ,,##''                                '''############,,,,        ,,,,,,###''
      ,#''                                            '''#######################'''  
     '                                                          ''''####''''         
             ,#######,   #######,   ,#######,      ##                                
            ,#'     '#,  ##    ##  ,#'     '#,    #''#        ######   ,####,        
            ##       ##  ##   ,#'  ##            #'  '#       #        #'  '#        
            ##       ##  #######   ##           ,######,      #####,   #    #        
            '#,     ,#'  ##    ##  '#,     ,#' ,#      #,         ##   #,  ,#        
             '#######'   ##     ##  '#######'  #'      '#     #####' # '####'        



                  #######################################################
                  #                        -***-                        #
                  #          Department of theory and spectroscopy      #
                  #    Directorship and core code : Frank Neese         #
                  #        Max Planck Institute fuer Kohlenforschung    #
                  #                Kaiser Wilhelm Platz 1               #
                  #                 D-45470 Muelheim/Ruhr               #
                  #                      Germany                        #
                  #                                                     #
                  #                  All rights reserved                #
                  #                        -***-                        #
                  #######################################################


                         Program Version 5.0.3 -  RELEASE  -


 With contributions from (in alphabetic order):
   Daniel Aravena         : Magnetic Suceptibility
   Michael Atanasov       : Ab Initio Ligand Field Theory (pilot matlab implementation)
   Alexander A. Auer      : GIAO ZORA, VPT2 properties, NMR spectrum
   Ute Becker             : Parallelization
   Giovanni Bistoni       : ED, misc. LED, open-shell LED, HFLD
   Martin Brehm           : Molecular dynamics
   Dmytro Bykov           : SCF Hessian
   Vijay G. Chilkuri      : MRCI spin determinant printing, contributions to CSF-ICE
   Dipayan Datta          : RHF DLPNO-CCSD density
   Achintya Kumar Dutta   : EOM-CC, STEOM-CC
   Dmitry Ganyushin       : Spin-Orbit,Spin-Spin,Magnetic field MRCI
   Miquel Garcia          : C-PCM and meta-GGA Hessian, CC/C-PCM, Gaussian charge scheme
   Yang Guo               : DLPNO-NEVPT2, F12-NEVPT2, CIM, IAO-localization
   Andreas Hansen         : Spin unrestricted coupled pair/coupled cluster methods
   Benjamin Helmich-Paris : MC-RPA, TRAH-SCF, COSX integrals
   Lee Huntington         : MR-EOM, pCC
   Robert Izsak           : Overlap fitted RIJCOSX, COSX-SCS-MP3, EOM
   Marcus Kettner         : VPT2
   Christian Kollmar      : KDIIS, OOCD, Brueckner-CCSD(T), CCSD density, CASPT2, CASPT2-K
   Simone Kossmann        : Meta GGA functionals, TD-DFT gradient, OOMP2, MP2 Hessian
   Martin Krupicka        : Initial AUTO-CI
   Lucas Lang             : DCDCAS
   Marvin Lechner         : AUTO-CI (C++ implementation), FIC-MRCC
   Dagmar Lenk            : GEPOL surface, SMD
   Dimitrios Liakos       : Extrapolation schemes; Compound Job, initial MDCI parallelization
   Dimitrios Manganas     : Further ROCIS development; embedding schemes
   Dimitrios Pantazis     : SARC Basis sets
   Anastasios Papadopoulos: AUTO-CI, single reference methods and gradients
   Taras Petrenko         : DFT Hessian,TD-DFT gradient, ASA, ECA, R-Raman, ABS, FL, XAS/XES, NRVS
   Peter Pinski           : DLPNO-MP2, DLPNO-MP2 Gradient
   Christoph Reimann      : Effective Core Potentials
   Marius Retegan         : Local ZFS, SOC
   Christoph Riplinger    : Optimizer, TS searches, QM/MM, DLPNO-CCSD(T), (RO)-DLPNO pert. Triples
   Tobias Risthaus        : Range-separated hybrids, TD-DFT gradient, RPA, STAB
   Michael Roemelt        : Original ROCIS implementation
   Masaaki Saitow         : Open-shell DLPNO-CCSD energy and density
   Barbara Sandhoefer     : DKH picture change effects
   Avijit Sen             : IP-ROCIS
   Kantharuban Sivalingam : CASSCF convergence, NEVPT2, FIC-MRCI
   Bernardo de Souza      : ESD, SOC TD-DFT
   Georgi Stoychev        : AutoAux, RI-MP2 NMR, DLPNO-MP2 response
   Willem Van den Heuvel  : Paramagnetic NMR
   Boris Wezisla          : Elementary symmetry handling
   Frank Wennmohs         : Technical directorship


 We gratefully acknowledge several colleagues who have allowed us to
 interface, adapt or use parts of their codes:
   Stefan Grimme, W. Hujo, H. Kruse, P. Pracht,  : VdW corrections, initial TS optimization,
                  C. Bannwarth, S. Ehlert          DFT functionals, gCP, sTDA/sTD-DF
   Ed Valeev, F. Pavosevic, A. Kumar             : LibInt (2-el integral package), F12 methods
   Garnet Chan, S. Sharma, J. Yang, R. Olivares  : DMRG
   Ulf Ekstrom                                   : XCFun DFT Library
   Mihaly Kallay                                 : mrcc  (arbitrary order and MRCC methods)
   Jiri Pittner, Ondrej Demel                    : Mk-CCSD
   Frank Weinhold                                : gennbo (NPA and NBO analysis)
   Christopher J. Cramer and Donald G. Truhlar   : smd solvation model
   Lars Goerigk                                  : TD-DFT with DH, B97 family of functionals
   V. Asgeirsson, H. Jonsson                     : NEB implementation
   FAccTs GmbH                                   : IRC, NEB, NEB-TS, DLPNO-Multilevel, CI-OPT
                                                   MM, QMMM, 2- and 3-layer-ONIOM, Crystal-QMMM,
                                                   LR-CPCM, SF, NACMEs, symmetry and pop. for TD-DFT,
                                                   nearIR, NL-DFT gradient (VV10), updates on ESD,
                                                   ML-optimized integration grids
   S Lehtola, MJT Oliveira, MAL Marques          : LibXC Library
   Liviu Ungur et al                             : ANISO software


 Your calculation uses the libint2 library for the computation of 2-el integrals
 For citations please refer to: http://libint.valeyev.net

 Your ORCA version has been built with support for libXC version: 5.1.0
 For citations please refer to: https://tddft.org/programs/libxc/

 This ORCA versions uses:
   CBLAS   interface :  Fast vector & matrix operations
   LAPACKE interface :  Fast linear algebra routines
   SCALAPACK package :  Parallel linear algebra routines
   Shared memory     :  Shared parallel matrices
   BLAS/LAPACK       :  OpenBLAS 0.3.15  USE64BITINT DYNAMIC_ARCH NO_AFFINITY SkylakeX SINGLE_THREADED
        Core in use  :  SkylakeX
   Copyright (c) 2011-2014, The OpenBLAS Project


================================================================================

----- Orbital basis set information -----
Your calculation utilizes the basis: def2-SVP
   F. Weigend and R. Ahlrichs, Phys. Chem. Chem. Phys. 7, 3297 (2005).

The basis set includes element-specific modifications.

Your calculation utilizes the basis: aug-cc-pVTZ 
    H, B-Ne : Obtained from the ccRepo (grant-hill.group.shef.ac.uk/ccrepo) Feb. 2017
              R. A. Kendall, T. H. Dunning, Jr., R. J. Harrison, J. Chem. Phys. 96, 6796 (1992)
         He : Obtained from the ccRepo (grant-hill.group.shef.ac.uk/ccrepo) Feb. 2017
              D. E. Woon, T. H. Dunning, Jr., J. Chem. Phys. 100, 2975 (1994)
  Li-Be, Na : Obtained from the ccRepo (grant-hill.group.shef.ac.uk/ccrepo) Feb. 2017
              B. P. Prascher, D. E. Woon, K. A. Peterson, T. H. Dunning, Jr., A. K. Wilson, Theor. Chem. Acc. 128, 69 (2011)
         Mg : Obtained from the Peterson Research Group Website (tyr0.chem.wsu.edu/~kipeters) Feb. 2017
              B. P. Prascher, D. E. Woon, K. A. Peterson, T. H. Dunning, Jr., A. K. Wilson, Theor. Chem. Acc. 128, 69 (2011)
      Al-Ar : Obtained from the ccRepo (grant-hill.group.shef.ac.uk/ccrepo) Feb. 2017
              D. E. Woon, T. H. Dunning, Jr., J. Chem. Phys. 98, 1358 (1993)
      Sc-Zn : Obtained from the ccRepo (grant-hill.group.shef.ac.uk/ccrepo) Feb. 2017
              N. B. Balabanov, K. A. Peterson, J. Chem. Phys. 123, 064107 (2005)
              N. B. Balabanov, K. A. Peterson, J. Chem. Phys. 125, 074110 (2006)
      Ga-Kr : Obtained from the ccRepo (grant-hill.group.shef.ac.uk/ccrepo) Feb. 2017
              A. K. Wilson, D. E. Woon, K. A. Peterson, T. H. Dunning, Jr., J. Chem. Phys. 110, 7667 (1999)
     Ag, Au : Obtained from the Peterson Research Group Website (tyr0.chem.wsu.edu/~kipeters) Feb. 2017
              K. A. Peterson, C. Puzzarini, Theor. Chem. Acc. 114, 283 (2005)

Your calculation utilizes the basis: cc-pVTZ 
       H, B-Ne : Obtained from the ccRepo (grant-hill.group.shef.ac.uk/ccrepo) Feb. 2017
                 T. H. Dunning, Jr., J. Chem. Phys. 90, 1007 (1989)
            He : Obtained from the ccRepo (grant-hill.group.shef.ac.uk/ccrepo) Feb. 2017
                 D. E. Woon, T. H. Dunning, Jr., J. Chem. Phys. 100, 2975 (1994)
  Li-Be, Na-Mg : Obtained from the ccRepo (grant-hill.group.shef.ac.uk/ccrepo) Feb. 2017
                 B. P. Prascher, D. E. Woon, K. A. Peterson, T. H. Dunning, Jr., A. K. Wilson, Theor. Chem. Acc. 128, 69 (2011)
         Al-Ar : Obtained from the ccRepo (grant-hill.group.shef.ac.uk/ccrepo) Feb. 2017
                 D. E. Woon, T. H. Dunning, Jr., J. Chem. Phys. 98, 1358 (1993)
            Ca : Obtained from the Peterson Research Group Website (tyr0.chem.wsu.edu/~kipeters) Feb. 2017
                 J. Koput, K. A. Peterson, J. Phys. Chem. 106, 9595 (2002)
         Sc-Zn : Obtained from the ccRepo (grant-hill.group.shef.ac.uk/ccrepo) Feb. 2017
                 N. B. Balabanov, K. A. Peterson, J. Chem. Phys. 123, 064107 (2005)
                 N. B. Balabanov, K. A. Peterson, J. Chem. Phys. 125, 074110 (2006)
         Ga-Kr : Obtained from the ccRepo (grant-hill.group.shef.ac.uk/ccrepo) Feb. 2017
                 A. K. Wilson, D. E. Woon, K. A. Peterson, T. H. Dunning, Jr., J. Chem. Phys. 110, 7667 (1999)
             Y : Obtained from the ccRepo (grant-hill.group.shef.ac.uk/ccrepo) Feb. 2017
                 K. A. Peterson, D. Figgen, M. Dolg, H. Stoll, J. Chem. Phys. 126, 124101 (2007)
        Ag, Au : Obtained from the Peterson Research Group Website (tyr0.chem.wsu.edu/~kipeters) Feb. 2017
                 K. A. Peterson, C. Puzzarini, Theor. Chem. Acc. 114, 283 (2005)

----- AuxJ basis set information -----
Your calculation utilizes the auxiliary basis: def2/J
   F. Weigend, Phys. Chem. Chem. Phys. 8, 1057 (2006).

================================================================================
                                        WARNINGS
                       Please study these warnings very carefully!
================================================================================

WARNING: The globally-selected AuxJ basis set is optimized for use with ECPs
         Make sure a suitable alternative is explicitly given all heavy elements (Z>36)

INFO   : the flag for use of the SHARK integral package has been found!

================================================================================
                                       INPUT FILE
================================================================================
NAME = final062.orca.inp
|  1> ! NoMOPrint PrintBasis #MINIPRINT SMALLPRINT LARGEPRINT
|  2> ! ALLPOP XYZFILE
|  3> #! BP86 3-21G   TightSCF
|  4> ! ENGRAD
|  5> ! B3LYP NormalPNO PModel #DecontractAux
|  6> #! VerySlowConv 
|  7>  %maxcore 5000
|  8>  %scf  maxiter   500  end 
|  9> 
| 10> %pal
| 11>     nprocs 32
| 12> end
| 13> 
| 14> %basis
| 15>     NewGTO O    # New basis for oxygen
| 16>         "aug-cc-pVTZ"
| 17>     end
| 18>     NewGTO C    # New basis for carbon
| 19>         "aug-cc-pVTZ"
| 20>     end
| 21>     NewGTO H    # New basis for hydrogen
| 22>         "cc-pVTZ"
| 23>     end
| 24> end
| 25> 
| 26> * xyz 0   1
| 27>   C  11.79  11.7  12.71  #1
| 28>   H  12.44  11.79  11.85  #2
| 29>   H  12.39  11.71  13.58  #3
| 30>   C  10.74  10.54  12.53  #4
| 31>   H  11.31  9.67  12.85  #5
| 32>   H  10.04  10.7  13.37  #6
| 33>   C  10.13  10.26  11.11  #7
| 34>   H  9.75  11.18  10.78  #8
| 35>   H  9.25  9.63  11.2  #9
| 36>   C  11.07  9.76  10.16  #10
| 37>   H  11.22  8.75  10.52  #11
| 38>   H  12.01  10.31  10.16  #12
| 39>   O  10.51  9.61  8.81  #13
| 40>   H  11.24  9.58  8.11  #14
| 41>   O  10.98  12.94  12.74  #15
| 42>   H  10.26  12.93  13.34  #16
| 43>   O  12.54  9.27  6.73  #17
| 44>   H  11.85  9.22  6.11  #18
| 45>   H  12.83  8.45  7.2  #19
| 46>   O  13.91  11.87  7.27  #20
| 47>   H  13.38  11.19  6.88  #21
| 48>   H  13.39  12.67  7.45  #22
| 49>   O  13.45  9.29  13.99  #23
| 50>   H  12.82  8.53  14.08  #24
| 51>   H  13.34  9.83  14.8  #25
| 52>   O  10.26  12.3  16.69  #26
| 53>   H  10.01  11.39  16.79  #27
| 54>   H  9.67  12.66  16.01  #28
| 55>   O  14.77  12.7  13.96  #29
| 56>   H  14.97  12.25  13.14  #30
| 57>   H  15.6  13  14.38  #31
| 58>   O  10.4  9.25  4.88  #32
| 59>   H  10.29  8.3  5.14  #33
| 60>   H  9.61  9.69  5.12  #34
| 61>   O  12.39  6.13  10.93  #35
| 62>   H  13.2  5.82  11.32  #36
| 63>   H  11.79  5.4  10.77  #37
| 64>   O  12.5  14.17  17.26  #38
| 65>   H  13.34  13.8  17.73  #39
| 66>   H  11.8  13.5  17.22  #40
| 67>   O  13.63  11.12  16.03  #41
| 68>   H  13.1  11.52  16.66  #42
| 69>   H  13.99  11.86  15.46  #43
| 70>   O  11.38  7.26  13.57  #44
| 71>   H  11.55  6.39  13.89  #45
| 72>   H  11.56  7.18  12.63  #46
| 73>   O  16.33  11.39  11.89  #47
| 74>   H  16.91  12.18  11.93  #48
| 75>   H  15.82  11.56  11.08  #49
| 76>   O  13.41  15.5  13.85  #50
| 77>   H  12.72  15.49  13.18  #51
| 78>   H  13.5  14.62  14.12  #52
| 79>   O  7.74  12.47  10.42  #53
| 80>   H  7.46  12.91  11.27  #54
| 81>   H  7.68  11.49  10.67  #55
| 82>   O  6.95  9.97  9.39  #56
| 83>   H  7.38  9.32  8.83  #57
| 84>   H  6.37  10.49  8.78  #58
| 85>   O  14.64  8.31  16.75  #59
| 86>   H  14.76  7.97  15.83  #60
| 87>   H  14.49  7.59  17.37  #61
| 88>   O  8.82  13.6  14.84  #62
| 89>   H  7.85  13.64  14.82  #63
| 90>   H  9.12  14.43  14.42  #64
| 91>   O  8.74  14.58  17.96  #65
| 92>   H  7.85  14.18  18.03  #66
| 93>   H  9.37  13.93  17.54  #67
| 94>   O  8.88  7.49  8.51  #68
| 95>   H  9.47  8.34  8.61  #69
| 96>   H  8.36  7.61  7.73  #70
| 97>   O  12.44  14.52  7.51  #71
| 98>   H  12.86  15.39  7.71  #72
| 99>   H  11.56  14.52  7.9  #73
|100>   O  10.27  11.89  7.27  #74
|101>   H  10.1  11.09  7.72  #75
|102>   H  10.57  12.5  7.94  #76
|103>   O  14.97  10.62  9.65  #77
|104>   H  14.53  11.12  8.93  #78
|105>   H  15.59  10.08  9.13  #79
|106>   O  9.02  7.69  14.59  #80
|107>   H  8.99  7.42  15.51  #81
|108>   H  9.92  7.6  14.32  #82
|109>   O  7.81  10.31  14.6  #83
|110>   H  7.29  10.52  15.39  #84
|111>   H  7.89  9.31  14.63  #85
|112>   O  14.13  8.64  11.55  #86
|113>   H  14.08  9.14  12.43  #87
|114>   H  14.62  9.29  11.02  #88
|115>   O  11.55  15.11  11.35  #89
|116>   H  11.62  14.21  11.79  #90
|117>   H  12.38  15.28  10.9  #91
|118>   O  17.34  12.66  15.09  #92
|119>   H  17.86  13.39  15.38  #93
|120>   H  17.81  12.12  14.42  #94
|121>   O  13.27  7.17  8.44  #95
|122>   H  12.92  7.15  9.33  #96
|123>   H  14.21  6.97  8.34  #97
|124>   O  16  11.57  5.53  #98
|125>   H  15.88  12.02  4.69  #99
|126>   H  15.4  11.84  6.21  #100
|127>   Q  0.6645  11.56$  10.77$  19.25$
|128>   Q  0.6645  11.12$  12.01$  20.04$
|129>   Q  -1.3290  11.09$  11.19$  19.75$
|130>   Q  0.6645  11.45$  2.49$  17.93$
|131>   Q  0.6645  11.72$  1.43$  19.04$
|132>   Q  -1.3290  11.5$  2.19$  18.72$
|133>   Q  0.6645  19.06$  16$  8.21$
|134>   Q  0.6645  20.36$  16.66$  8.12$
|135>   Q  -1.3290  19.56$  16.54$  7.87$
|136>   Q  0.6645  6.85$  3.31$  8.21$
|137>   Q  0.6645  6.65$  2.31$  6.97$
|138>   Q  -1.3290  6.94$  2.96$  7.42$
|139>   Q  0.6645  18.23$  19.36$  11.99$
|140>   Q  0.6645  18.13$  18.62$  10.59$
|141>   Q  -1.3290  18.49$  18.9$  11.34$
|142>   Q  0.6645  9.3$  9.66$  2.15$
|143>   Q  0.6645  7.83$  10.13$  2.44$
|144>   Q  -1.3290  8.45$  9.74$  2.01$
|145>   Q  0.6645  8.61$  14.95$  2.72$
|146>   Q  0.6645  7.21$  15.53$  3.12$
|147>   Q  -1.3290  8.03$  15.27$  3.24$
|148>   Q  0.6645  14.48$  3.25$  2.63$
|149>   Q  0.6645  13.13$  3.4$  3.5$
|150>   Q  -1.3290  13.72$  3.04$  3$
|151>   Q  0.6645  19.99$  6.63$  12.8$
|152>   Q  0.6645  18.94$  5.82$  12.16$
|153>   Q  -1.3290  19.65$  5.92$  12.59$
|154>   Q  0.6645  9.58$  19.37$  14.75$
|155>   Q  0.6645  8.95$  20$  13.36$
|156>   Q  -1.3290  9.22$  19.98$  14.22$
|157>   Q  0.6645  11.87$  15.78$  16.63$
|158>   Q  0.6645  11.71$  16.84$  15.4$
|159>   Q  -1.3290  11.67$  16.53$  16.24$
|160>   Q  0.6645  15.71$  7.11$  6.14$
|161>   Q  0.6645  16.06$  5.76$  6.94$
|162>   Q  -1.3290  15.78$  6.56$  6.8$
|163>   Q  0.6645  5.22$  0.7$  10.12$
|164>   Q  0.6645  5.49$  1.97$  9.16$
|165>   Q  -1.3290  5.22$  1.18$  9.39$
|166>   Q  0.6645  19.14$  5.81$  14.42$
|167>   Q  0.6645  19.71$  5.73$  15.84$
|168>   Q  -1.3290  19.08$  5.76$  15.25$
|169>   Q  0.6645  7.7$  18.88$  8.08$
|170>   Q  0.6645  6.44$  19.36$  8.72$
|171>   Q  -1.3290  7.22$  19.44$  8.5$
|172>   Q  0.6645  4.76$  18.78$  6.83$
|173>   Q  0.6645  4.95$  17.24$  7.01$
|174>   Q  -1.3290  4.71$  18.02$  7.24$
|175>   Q  0.6645  4.73$  4.27$  13.14$
|176>   Q  0.6645  5.27$  2.99$  12.74$
|177>   Q  -1.3290  5$  3.72$  12.59$
|178>   Q  0.6645  6.15$  12.46$  13.33$
|179>   Q  0.6645  7.01$  11.36$  13.39$
|180>   Q  -1.3290  6.47$  11.82$  12.99$
|181>   Q  0.6645  18.96$  6.6$  8.12$
|182>   Q  0.6645  19.06$  5.7$  9.38$
|183>   Q  -1.3290  19.01$  6.41$  8.93$
|184>   Q  0.6645  2.79$  8.24$  16.33$
|185>   Q  0.6645  1.91$  7.55$  15.25$
|186>   Q  -1.3290  2.05$  7.9$  16$
|187>   Q  0.6645  20.66$  9.4$  7.36$
|188>   Q  0.6645  19.43$  10.36$  7.28$
|189>   Q  -1.3290  19.82$  9.63$  7.4$
|190>   Q  0.6645  13.62$  18.51$  18.47$
|191>   Q  0.6645  12.42$  17.99$  17.69$
|192>   Q  -1.3290  12.8$  18.52$  18.21$
|193>   Q  0.6645  9.96$  4.25$  9.97$
|194>   Q  0.6645  11.02$  4.27$  8.86$
|195>   Q  -1.3290  10.67$  4.02$  9.58$
|196>   Q  0.6645  13.93$  6.77$  19.69$
|197>   Q  0.6645  15.22$  6.27$  19.09$
|198>   Q  -1.3290  14.38$  6.34$  19.13$
|199>   Q  0.6645  11.78$  18.05$  19.82$
|200>   Q  0.6645  10.67$  17.79$  20.77$
|201>   Q  -1.3290  11.47$  17.96$  20.57$
|202>   Q  0.6645  4.36$  8.5$  5.2$
|203>   Q  0.6645  3.53$  9.48$  6.09$
|204>   Q  -1.3290  4.26$  9.11$  5.75$
|205>   Q  0.6645  4.77$  15.1$  5.89$
|206>   Q  0.6645  6.34$  15.22$  6.26$
|207>   Q  -1.3290  5.52$  15.5$  6.11$
|208>   Q  0.6645  14.63$  4.35$  13.02$
|209>   Q  0.6645  15.56$  4.18$  11.86$
|210>   Q  -1.3290  14.98$  4.55$  12.28$
|211>   Q  0.6645  11.87$  2.35$  10.21$
|212>   Q  0.6645  12.11$  0.9$  10.62$
|213>   Q  -1.3290  12.34$  1.67$  10.41$
|214>   Q  0.6645  11.4$  21.38$  12.18$
|215>   Q  0.6645  11.68$  20.23$  11.08$
|216>   Q  -1.3290  11.28$  20.89$  11.45$
|217>   Q  0.6645  11.24$  4.57$  0.19$
|218>   Q  0.6645  9.68$  4.77$  0.37$
|219>   Q  -1.3290  10.51$  4.74$  0.61$
|220>   Q  0.6645  4.5$  14.98$  19.27$
|221>   Q  0.6645  4.21$  13.5$  19.78$
|222>   Q  -1.3290  4.39$  14.11$  19.22$
|223>   Q  0.6645  10.1$  17.72$  10.51$
|224>   Q  0.6645  9.89$  16.48$  11.4$
|225>   Q  -1.3290  9.76$  17.25$  11.12$
|226>   Q  0.6645  8.59$  14.3$  6.35$
|227>   Q  0.6645  8.88$  15.31$  5.19$
|228>   Q  -1.3290  8.97$  14.96$  5.97$
|229>   Q  0.6645  17.25$  17.88$  16.09$
|230>   Q  0.6645  18.63$  18.09$  16.92$
|231>   Q  -1.3290  18.01$  17.67$  16.46$
|232>   Q  0.6645  6.62$  13.11$  7.37$
|233>   Q  0.6645  6.13$  12.96$  6.01$
|234>   Q  -1.3290  6.73$  13.09$  6.55$
|235>   Q  0.6645  8.44$  4.75$  3.38$
|236>   Q  0.6645  8.74$  5.9$  4.25$
|237>   Q  -1.3290  8.26$  5.48$  3.74$
|238>   Q  0.6645  4.36$  11.57$  16.43$
|239>   Q  0.6645  3.35$  11.28$  15.18$
|240>   Q  -1.3290  3.73$  11.71$  15.85$
|241>   Q  0.6645  7.5$  16.83$  8.32$
|242>   Q  0.6645  8.48$  16.35$  7.17$
|243>   Q  -1.3290  8.1$  16.91$  7.71$
|244>   Q  0.6645  10.72$  14.88$  1.81$
|245>   Q  0.6645  10.04$  13.44$  1.62$
|246>   Q  -1.3290  10.09$  14.3$  1.58$
|247>   Q  0.6645  12.92$  8.34$  21.03$
|248>   Q  0.6645  14.34$  8.2$  21.65$
|249>   Q  -1.3290  13.76$  8.2$  21.02$
|250>   Q  0.6645  2.76$  14.21$  16.55$
|251>   Q  0.6645  2.16$  15.62$  16.55$
|252>   Q  -1.3290  2.25$  14.81$  16.27$
|253>   Q  0.6645  3.47$  16.38$  9.19$
|254>   Q  0.6645  2.52$  15.18$  9.67$
|255>   Q  -1.3290  2.79$  15.8$  9.14$
|256>   Q  0.6645  8.98$  6.17$  17.05$
|257>   Q  0.6645  8.74$  7.4$  17.77$
|258>   Q  -1.3290  8.53$  6.81$  17.15$
|259>   Q  0.6645  13.03$  9.48$  2.65$
|260>   Q  0.6645  11.74$  9.12$  3.47$
|261>   Q  -1.3290  12.49$  8.96$  3.07$
|262>   Q  0.6645  8.84$  10.77$  19.77$
|263>   Q  0.6645  7.72$  10.55$  20.74$
|264>   Q  -1.3290  8.16$  10.38$  20.07$
|265>   Q  0.6645  16.36$  18.05$  18.54$
|266>   Q  0.6645  15.72$  16.99$  17.51$
|267>   Q  -1.3290  15.77$  17.5$  18.24$
|268>   Q  0.6645  8.54$  16.59$  14.53$
|269>   Q  0.6645  8.39$  17.02$  13.1$
|270>   Q  -1.3290  8.58$  16.47$  13.68$
|271>   Q  0.6645  17.06$  18.14$  8.37$
|272>   Q  0.6645  15.96$  18.58$  9.3$
|273>   Q  -1.3290  16.7$  18.26$  9.1$
|274>   Q  0.6645  14.55$  15.79$  15.51$
|275>   Q  0.6645  15.3$  14.84$  16.44$
|276>   Q  -1.3290  15.21$  15.52$  15.94$
|277>   Q  0.6645  17.58$  10.98$  20.93$
|278>   Q  0.6645  16.15$  11.64$  20.73$
|279>   Q  -1.3290  16.99$  11.6$  20.88$
|280>   Q  0.6645  17.01$  15.56$  14.61$
|281>   Q  0.6645  17.57$  14.61$  13.48$
|282>   Q  -1.3290  17.43$  15.39$  13.86$
|283>   Q  0.6645  8.14$  19.05$  11.28$
|284>   Q  0.6645  7.12$  19.19$  12.41$
|285>   Q  -1.3290  7.67$  19.45$  11.84$
|286>   Q  0.6645  8.17$  15.74$  16.62$
|287>   Q  0.6645  8.29$  17.28$  16.69$
|288>   Q  -1.3290  7.97$  16.52$  16.4$
|289>   Q  0.6645  8.13$  1.76$  15.96$
|290>   Q  0.6645  8.49$  2.27$  17.42$
|291>   Q  -1.3290  8.51$  2.27$  16.55$
|292>   Q  0.6645  14.59$  16.19$  9.8$
|293>   Q  0.6645  14.68$  16.72$  11.32$
|294>   Q  -1.3290  14.31$  16.5$  10.57$
|295>   Q  0.6645  14.39$  1.67$  7.46$
|296>   Q  0.6645  13.99$  2.35$  8.84$
|297>   Q  -1.3290  14.49$  2.16$  8.14$
|298>   Q  0.6645  5.53$  8.45$  6.97$
|299>   Q  0.6645  6.13$  7.95$  8.31$
|300>   Q  -1.3290  6.09$  8.09$  7.49$
|301>   Q  0.6645  8.03$  19.6$  18.9$
|302>   Q  0.6645  6.64$  19.63$  19.42$
|303>   Q  -1.3290  7.34$  19.25$  19.19$
|304>   Q  0.6645  14.98$  16.4$  6.95$
|305>   Q  0.6645  14.52$  17.34$  8.07$
|306>   Q  -1.3290  14.56$  16.59$  7.64$
|307>   Q  0.6645  13.11$  2.52$  12.16$
|308>   Q  0.6645  12.42$  2.04$  13.38$
|309>   Q  -1.3290  12.99$  2.47$  13$
|310>   Q  0.6645  10.58$  18.05$  16.54$
|311>   Q  0.6645  10.09$  19.54$  16.96$
|312>   Q  -1.3290  10.07$  18.75$  16.6$
|313>   Q  0.6645  13.71$  12.82$  1.56$
|314>   Q  0.6645  13.73$  11.64$  0.62$
|315>   Q  -1.3290  13.5$  12.07$  1.31$
|316>   Q  0.6645  6.23$  11.18$  17.44$
|317>   Q  0.6645  5.57$  9.93$  16.93$
|318>   Q  -1.3290  6$  10.64$  16.87$
|319>   Q  0.6645  12.73$  4.24$  7.19$
|320>   Q  0.6645  12.48$  5.65$  7.55$
|321>   Q  -1.3290  12.25$  4.9$  7.29$
|322>   Q  0.6645  3.95$  9.07$  17.89$
|323>   Q  0.6645  4.75$  7.8$  17.41$
|324>   Q  -1.3290  4.33$  8.54$  17.33$
|325>   Q  0.6645  13.75$  15.1$  19.57$
|326>   Q  0.6645  12.39$  14.28$  20.07$
|327>   Q  -1.3290  13.24$  14.5$  19.97$
|328>   Q  0.6645  7.37$  8.04$  1.93$
|329>   Q  0.6645  7.01$  6.64$  2.51$
|330>   Q  -1.3290  6.85$  7.38$  2.11$
|331>   Q  0.6645  12.03$  18.66$  13.72$
|332>   Q  0.6645  10.9$  17.89$  12.86$
|333>   Q  -1.3290  11.36$  18.1$  13.56$
|334>   Q  0.6645  9.78$  17.61$  8.12$
|335>   Q  0.6645  10.55$  18.91$  7.87$
|336>   Q  -1.3290  10.34$  18.22$  8.32$
|337>   Q  0.6645  18.18$  14.08$  18.47$
|338>   Q  0.6645  17.9$  13.15$  19.7$
|339>   Q  -1.3290  18.33$  13.72$  19.25$
|340>   Q  0.6645  1.71$  13.67$  11.7$
|341>   Q  0.6645  2.66$  12.84$  10.67$
|342>   Q  -1.3290  2.22$  13.53$  11.01$
|343>   Q  0.6645  2.96$  10.91$  19.02$
|344>   Q  0.6645  3.91$  10.42$  20.15$
|345>   Q  -1.3290  3.55$  10.37$  19.4$
|346>   Q  0.6645  8.79$  8.66$  19.69$
|347>   Q  0.6645  10.12$  7.87$  19.82$
|348>   Q  -1.3290  9.33$  8.02$  19.55$
|349>   Q  0.6645  10.36$  2$  4.41$
|350>   Q  0.6645  10.38$  2.26$  5.96$
|351>   Q  -1.3290  10.62$  2.36$  5.14$
|352>   Q  0.6645  13.73$  9.72$  17.81$
|353>   Q  0.6645  13.62$  9.33$  19.29$
|354>   Q  -1.3290  13.49$  9.83$  18.63$
|355>   Q  0.6645  12.16$  14.32$  5.54$
|356>   Q  0.6645  11.63$  13.41$  4.5$
|357>   Q  -1.3290  12.09$  14.06$  4.79$
|358>   Q  0.6645  20.81$  9.02$  12.43$
|359>   Q  0.6645  20.45$  8.99$  13.99$
|360>   Q  -1.3290  20.76$  8.7$  13.25$
|361>   Q  0.6645  2.47$  19.61$  11.99$
|362>   Q  0.6645  3.32$  18.23$  11.91$
|363>   Q  -1.3290  2.86$  18.9$  12.29$
|364>   Q  0.6645  5.93$  4.8$  6.87$
|365>   Q  0.6645  5.78$  6.26$  6.77$
|366>   Q  -1.3290  5.54$  5.49$  6.65$
|367>   Q  0.6645  19.23$  13.97$  11.23$
|368>   Q  0.6645  17.72$  14.3$  10.81$
|369>   Q  -1.3290  18.37$  13.83$  11.19$
|370>   Q  0.6645  5.86$  14.96$  9.31$
|371>   Q  0.6645  6.48$  15.59$  10.5$
|372>   Q  -1.3290  6.08$  15.59$  9.76$
|373>   Q  0.6645  8.76$  2.39$  2.9$
|374>   Q  0.6645  9.49$  3.1$  1.71$
|375>   Q  -1.3290  9.07$  3.03$  2.47$
|376>   Q  0.6645  20.52$  11.05$  15.11$
|377>   Q  0.6645  21.28$  10.31$  16.29$
|378>   Q  -1.3290  21.2$  10.79$  15.57$
|379>   Q  0.6645  13.71$  19.46$  8.82$
|380>   Q  0.6645  14.65$  20.21$  7.83$
|381>   Q  -1.3290  14.4$  19.55$  8.3$
|382>   Q  0.6645  5.4$  3.46$  4.48$
|383>   Q  0.6645  6.34$  4.62$  4.19$
|384>   Q  -1.3290  5.72$  4.09$  4.02$
|385>   Q  0.6645  15.59$  12.78$  17.87$
|386>   Q  0.6645  15.72$  13.98$  18.79$
|387>   Q  -1.3290  15.39$  13.55$  18.16$
|388>   Q  0.6645  5.24$  14.26$  14.21$
|389>   Q  0.6645  5.38$  13.3$  15.4$
|390>   Q  -1.3290  5.64$  13.78$  14.77$
|391>   Q  0.6645  8.85$  2.71$  7.66$
|392>   Q  0.6645  9.22$  1.29$  8.04$
|393>   Q  -1.3290  9.32$  2.02$  7.62$
|394>   Q  0.6645  4.04$  16.11$  13.81$
|395>   Q  0.6645  3.35$  15.13$  12.85$
|396>   Q  -1.3290  3.95$  15.67$  13.12$
|397>   Q  0.6645  16.82$  11.73$  16.47$
|398>   Q  0.6645  15.66$  10.76$  16.78$
|399>   Q  -1.3290  16.33$  11.29$  16.96$
|400>   Q  0.6645  6.55$  6.22$  17.54$
|401>   Q  0.6645  5.52$  6.12$  18.58$
|402>   Q  -1.3290  5.77$  6.22$  17.8$
|403>   Q  0.6645  17.86$  10.63$  9.7$
|404>   Q  0.6645  18.36$  12.08$  10.11$
|405>   Q  -1.3290  18.21$  11.39$  9.59$
|406>   Q  0.6645  6.96$  14.33$  20.06$
|407>   Q  0.6645  7.77$  15.6$  20.53$
|408>   Q  -1.3290  7.25$  14.92$  20.61$
|409>   Q  0.6645  21.07$  12.67$  10.22$
|410>   Q  0.6645  21.73$  13.93$  9.65$
|411>   Q  -1.3290  21.12$  13.48$  10.01$
|412>   Q  0.6645  10.8$  7.4$  2.6$
|413>   Q  0.6645  10.03$  6.61$  1.63$
|414>   Q  -1.3290  10.16$  7.27$  2.11$
|415>   Q  0.6645  1.73$  14.49$  14.29$
|416>   Q  0.6645  1.25$  15.74$  13.61$
|417>   Q  -1.3290  1.51$  14.94$  13.62$
|418>   Q  0.6645  16.02$  7.42$  1.63$
|419>   Q  0.6645  16.02$  8.86$  1.34$
|420>   Q  -1.3290  15.87$  8.08$  1.13$
|421>   Q  0.6645  2.02$  11.07$  6.44$
|422>   Q  0.6645  1.81$  9.73$  7.22$
|423>   Q  -1.3290  2.22$  10.43$  6.95$
|424>   Q  0.6645  7.29$  9.58$  6.23$
|425>   Q  0.6645  7.32$  11$  5.82$
|426>   Q  -1.3290  7.64$  10.25$  5.9$
|427>   Q  0.6645  4.75$  19.11$  16.77$
|428>   Q  0.6645  4.83$  19.39$  15.24$
|429>   Q  -1.3290  4.71$  19.59$  16.08$
|430>   Q  0.6645  8.07$  4.7$  13.01$
|431>   Q  0.6645  8.38$  3.23$  12.33$
|432>   Q  -1.3290  8.55$  4.02$  12.73$
|433>   Q  0.6645  7.38$  12.3$  2.56$
|434>   Q  0.6645  8.11$  12.14$  3.96$
|435>   Q  -1.3290  7.6$  11.93$  3.31$
|436>   Q  0.6645  5.71$  15.95$  15.45$
|437>   Q  0.6645  4.97$  16.71$  16.48$
|438>   Q  -1.3290  5.15$  16.49$  15.69$
|439>   Q  0.6645  1.57$  5.9$  13.39$
|440>   Q  0.6645  0.84$  7.27$  13.12$
|441>   Q  -1.3290  1.45$  6.75$  13.41$
|442>   Q  0.6645  4.86$  12.75$  9.1$
|443>   Q  0.6645  6.44$  13.04$  9.54$
|444>   Q  -1.3290  5.68$  13.03$  9.04$
|445>   Q  0.6645  3.28$  4.96$  9.32$
|446>   Q  0.6645  3.85$  4.71$  7.94$
|447>   Q  -1.3290  3.29$  4.57$  8.57$
|448>   Q  0.6645  10.83$  8.34$  22.14$
|449>   Q  0.6645  10.97$  9.59$  21.17$
|450>   Q  -1.3290  11.11$  8.79$  21.46$
|451>   Q  0.6645  13.98$  19.86$  13$
|452>   Q  0.6645  13.87$  19.44$  14.58$
|453>   Q  -1.3290  13.6$  19.71$  13.77$
|454>   Q  0.6645  3.56$  10.45$  12.32$
|455>   Q  0.6645  5.04$  10.6$  12.04$
|456>   Q  -1.3290  4.28$  10.23$  11.97$
|457>   Q  0.6645  5.14$  17.56$  9.98$
|458>   Q  0.6645  4.22$  18.61$  9.25$
|459>   Q  -1.3290  4.62$  18.26$  9.94$
|460>   Q  0.6645  9.82$  21.41$  10.35$
|461>   Q  0.6645  8.34$  21.12$  9.72$
|462>   Q  -1.3290  9.08$  21.57$  9.88$
|463>   Q  0.6645  10.03$  12.26$  5.67$
|464>   Q  0.6645  9.74$  13.42$  4.74$
|465>   Q  -1.3290  9.93$  12.61$  4.9$
|466>   Q  0.6645  1.69$  7.63$  9.76$
|467>   Q  0.6645  2.52$  8.75$  10.1$
|468>   Q  -1.3290  1.9$  8.41$  9.71$
|469>   Q  0.6645  16.71$  6.08$  11.85$
|470>   Q  0.6645  17.4$  6$  10.46$
|471>   Q  -1.3290  17.35$  6.06$  11.3$
|472>   Q  0.6645  21.14$  14.62$  13.85$
|473>   Q  0.6645  19.72$  15.19$  13.95$
|474>   Q  -1.3290  20.31$  14.63$  13.71$
|475>   Q  0.6645  12.22$  16.8$  2.34$
|476>   Q  0.6645  11.89$  16.02$  3.52$
|477>   Q  -1.3290  11.71$  16.46$  2.86$
|478>   Q  0.6645  4.39$  17.63$  18.67$
|479>   Q  0.6645  5.86$  18.08$  18.36$
|480>   Q  -1.3290  5.08$  17.78$  18.17$
|481>   Q  0.6645  10$  0.15$  13.93$
|482>   Q  0.6645  9.87$  1.46$  13.17$
|483>   Q  -1.3290  10.28$  0.85$  13.55$
|484>   Q  0.6645  16.2$  3.48$  7.47$
|485>   Q  0.6645  17.65$  3.59$  7.22$
|486>   Q  -1.3290  16.87$  3.9$  7.23$
|487>   Q  0.6645  18.03$  8.5$  14.75$
|488>   Q  0.6645  18.89$  7.56$  15.69$
|489>   Q  -1.3290  18.61$  8.3$  15.36$
|490>   Q  0.6645  12.45$  1.59$  15.99$
|491>   Q  0.6645  11.33$  2.69$  15.69$
|492>   Q  -1.3290  12$  2.35$  16.08$
|493>   Q  0.6645  19.23$  17.44$  13.91$
|494>   Q  0.6645  19.9$  17.27$  12.62$
|495>   Q  -1.3290  19.89$  17.37$  13.43$
|496>   Q  0.6645  15.75$  3.48$  14.73$
|497>   Q  0.6645  14.9$  4.15$  15.7$
|498>   Q  -1.3290  15.42$  4.16$  15.08$
|499>   Q  0.6645  16.54$  9.89$  12.9$
|500>   Q  0.6645  16.22$  8.5$  13.59$
|501>   Q  -1.3290  16.73$  9.15$  13.28$
|502>   Q  0.6645  15.71$  6.15$  14.36$
|503>   Q  0.6645  14.89$  7.06$  13.34$
|504>   Q  -1.3290  15.39$  6.88$  14$
|505>   Q  0.6645  13.4$  -0.06$  14.52$
|506>   Q  0.6645  14.13$  1.36$  14.72$
|507>   Q  -1.3290  13.77$  0.61$  14.96$
|508>   Q  0.6645  8.3$  11.89$  0.89$
|509>   Q  0.6645  8.11$  13.33$  0.12$
|510>   Q  -1.3290  7.88$  12.56$  0.54$
|511>   Q  0.6645  4.71$  7.16$  10.71$
|512>   Q  0.6645  5.67$  8.27$  10.46$
|513>   Q  -1.3290  5.21$  7.62$  10.25$
|514>   Q  0.6645  5.34$  17.88$  14.24$
|515>   Q  0.6645  4.91$  19.01$  13.19$
|516>   Q  -1.3290  5.41$  18.57$  13.7$
|517>   Q  0.6645  5.87$  13.02$  18.48$
|518>   Q  0.6645  7.1$  12.35$  19.17$
|519>   Q  -1.3290  6.69$  12.79$  18.56$
|520>   Q  0.6645  10.4$  4.14$  13.74$
|521>   Q  0.6645  11.99$  3.86$  13.97$
|522>   Q  -1.3290  11.17$  4.21$  14.08$
|523>   Q  0.6645  3.01$  14.54$  7.06$
|524>   Q  0.6645  2.59$  15.28$  5.83$
|525>   Q  -1.3290  2.86$  14.6$  6.26$
|526>   Q  0.6645  9.81$  6.9$  6.91$
|527>   Q  0.6645  10.64$  5.92$  5.98$
|528>   Q  -1.3290  10.07$  6.55$  6.16$
|529>   Q  0.6645  16.6$  5.82$  3.39$
|530>   Q  0.6645  15.02$  5.8$  3.2$
|531>   Q  -1.3290  15.86$  5.75$  2.94$
|532>   Q  0.6645  18.55$  15.64$  16.73$
|533>   Q  0.6645  19.5$  14.47$  16.26$
|534>   Q  -1.3290  18.83$  14.82$  16.63$
|535>   Q  0.6645  13.91$  14.66$  -0.07$
|536>   Q  0.6645  15.34$  14.79$  0.25$
|537>   Q  -1.3290  14.55$  14.87$  0.42$
|538>   Q  0.6645  2.12$  11.9$  17.26$
|539>   Q  0.6645  1$  11.89$  18.08$
|540>   Q  -1.3290  1.79$  12.05$  17.95$
|541>   Q  0.6645  15.27$  20.79$  10.92$
|542>   Q  0.6645  15.45$  19.29$  11.55$
|543>   Q  -1.3290  15.15$  20.08$  11.44$
|544>   Q  0.6645  1.51$  10.7$  14.42$
|545>   Q  0.6645  2.36$  9.48$  14.16$
|546>   Q  -1.3290  2.2$  10.31$  14.15$
|547>   Q  0.6645  7.74$  21.06$  15.29$
|548>   Q  0.6645  6.39$  21.16$  16.12$
|549>   Q  -1.3290  7.01$  21.41$  15.58$
|550>   Q  0.6645  17.54$  8.48$  3.44$
|551>   Q  0.6645  18.71$  7.77$  3.9$
|552>   Q  -1.3290  18.35$  8.35$  3.46$
|553>   Q  0.6645  8.03$  17.83$  4.05$
|554>   Q  0.6645  8.15$  17.85$  5.6$
|555>   Q  -1.3290  7.78$  18.03$  4.86$
|556>   Q  0.6645  6.5$  6.94$  12.79$
|557>   Q  0.6645  8.07$  6.96$  13.21$
|558>   Q  -1.3290  7.36$  6.72$  12.81$
|559>   Q  0.6645  16.2$  19.69$  14.87$
|560>   Q  0.6645  15.43$  19.9$  16.16$
|561>   Q  -1.3290  15.59$  19.48$  15.42$
|562>   Q  0.6645  4.76$  6.5$  4.65$
|563>   Q  0.6645  5.15$  7.37$  3.54$
|564>   Q  -1.3290  4.59$  7.03$  4.05$
|565>   Q  0.6645  4.04$  10.76$  10.22$
|566>   Q  0.6645  3.24$  11.02$  8.95$
|567>   Q  -1.3290  3.67$  11.24$  9.64$
|568>   Q  0.6645  11.47$  11.55$  1.89$
|569>   Q  0.6645  10.19$  11.57$  2.94$
|570>   Q  -1.3290  10.63$  11.64$  2.17$
|571>   Q  0.6645  14.28$  11.15$  19.84$
|572>   Q  0.6645  14.3$  12.63$  20.3$
|573>   Q  -1.3290  14.47$  11.8$  20.34$
|574>   Q  0.6645  19.29$  11.13$  12.83$
|575>   Q  0.6645  19.72$  12.52$  13.38$
|576>   Q  -1.3290  19.52$  11.71$  13.4$
|577>   Q  0.6645  14.99$  11.06$  2.64$
|578>   Q  0.6645  14.89$  9.79$  3.56$
|579>   Q  -1.3290  15.05$  10.24$  2.83$
|580>   Q  0.6645  16.72$  2.24$  10.78$
|581>   Q  0.6645  17.75$  3.3$  10.62$
|582>   Q  -1.3290  17.12$  2.91$  11.02$
|583>   Q  0.6645  4.48$  5.85$  14.76$
|584>   Q  0.6645  4.7$  4.59$  15.35$
|585>   Q  -1.3290  4.28$  5.09$  14.89$
|586>   Q  0.6645  10.51$  14.4$  9.89$
|587>   Q  0.6645  9.15$  13.9$  9.37$
|588>   Q  -1.3290  9.96$  14.15$  9.32$
|589>   Q  0.6645  17.23$  15.13$  20.22$
|590>   Q  0.6645  16.07$  16.07$  19.69$
|591>   Q  -1.3290  16.4$  15.39$  20.11$
|592>   Q  0.6645  16.77$  15.17$  8.59$
|593>   Q  0.6645  16.76$  16.25$  9.59$
|594>   Q  -1.3290  16.85$  15.45$  9.34$
|595>   Q  0.6645  9.64$  3.87$  16.92$
|596>   Q  0.6645  10.74$  4.74$  16.32$
|597>   Q  -1.3290  10.06$  4.6$  16.83$
|598>   Q  0.6645  3.61$  4.93$  11.44$
|599>   Q  0.6645  2.1$  5.18$  11.49$
|600>   Q  -1.3290  2.89$  5.3$  11.23$
|601>   Q  0.6645  13.31$  7.36$  3.51$
|602>   Q  0.6645  12.76$  5.98$  3.82$
|603>   Q  -1.3290  13.38$  6.57$  3.76$
|604>   Q  0.6645  8.6$  6.09$  9.53$
|605>   Q  0.6645  8.55$  5.89$  10.96$
|606>   Q  -1.3290  8.51$  5.63$  10.22$
|607>   Q  0.6645  17.06$  7.3$  17.31$
|608>   Q  0.6645  17.14$  5.9$  16.89$
|609>   Q  -1.3290  17.11$  6.49$  17.44$
|610>   Q  0.6645  7.16$  15.25$  12.77$
|611>   Q  0.6645  5.75$  15.19$  12.2$
|612>   Q  -1.3290  6.59$  15.08$  12.21$
|613>   Q  0.6645  4.6$  11.13$  4.88$
|614>   Q  0.6645  5.8$  11.8$  4.18$
|615>   Q  -1.3290  5.09$  11.8$  4.67$
|616>   Q  0.6645  14.38$  8.48$  5.05$
|617>   Q  0.6645  15.5$  9.5$  5.45$
|618>   Q  -1.3290  15.18$  8.83$  5.04$
|619>   Q  0.6645  17.47$  9.06$  8.29$
|620>   Q  0.6645  16.37$  8.12$  7.69$
|621>   Q  -1.3290  16.68$  8.82$  8.09$
|622>   Q  0.6645  10.71$  4.62$  3.07$
|623>   Q  0.6645  11.19$  4.11$  4.4$
|624>   Q  -1.3290  11.16$  4.66$  3.78$
|625>   Q  0.6645  14.89$  17.58$  13.42$
|626>   Q  0.6645  16.24$  16.88$  13.12$
|627>   Q  -1.3290  15.56$  17.37$  12.94$
|628>   Q  0.6645  4.27$  14.54$  2.8$
|629>   Q  0.6645  4.56$  13.21$  3.35$
|630>   Q  -1.3290  4.24$  13.73$  2.8$
|631>   Q  0.6645  5.94$  3.46$  10.68$
|632>   Q  0.6645  6.74$  4.49$  10.01$
|633>   Q  -1.3290  6.3$  3.8$  10.03$
|634>   Q  0.6645  3.54$  7.04$  12.74$
|635>   Q  0.6645  4.47$  8.32$  12.65$
|636>   Q  -1.3290  4.22$  7.55$  12.89$
|637>   Q  0.6645  7.24$  5.47$  15.43$
|638>   Q  0.6645  7.42$  3.93$  15.93$
|639>   Q  -1.3290  7.01$  4.64$  15.6$
|640>   Q  0.6645  17.98$  11.85$  6.08$
|641>   Q  0.6645  18.4$  12.31$  7.58$
|642>   Q  -1.3290  18.5$  12.06$  6.73$
|643>   Q  0.6645  15.05$  16.37$  4.66$
|644>   Q  0.6645  14.04$  15.28$  4.79$
|645>   Q  -1.3290  14.79$  15.63$  4.9$
|646>   Q  0.6645  18.86$  8.15$  10.28$
|647>   Q  0.6645  18.37$  8.58$  11.7$
|648>   Q  -1.3290  18.6$  8.68$  10.9$
|649>   Q  0.6645  11.91$  18.39$  9.37$
|650>   Q  0.6645  13.08$  18.18$  10.39$
|651>   Q  -1.3290  12.44$  18.6$  10$
|652>   Q  0.6645  15.04$  13.95$  3.55$
|653>   Q  0.6645  16.23$  13.48$  2.63$
|654>   Q  -1.3290  15.68$  13.45$  3.27$
|655>   Q  0.6645  8.18$  0.72$  11.27$
|656>   Q  0.6645  7.06$  1.24$  12.23$
|657>   Q  -1.3290  7.82$  1.22$  11.88$
|658>   Q  0.6645  16.41$  15.03$  6.05$
|659>   Q  0.6645  17.61$  14.2$  6.34$
|660>   Q  -1.3290  17.06$  14.77$  6.51$
|661>   Q  0.6645  17.78$  10.07$  17.69$
|662>   Q  0.6645  18.78$  9.43$  16.87$
|663>   Q  -1.3290  18.55$  9.83$  17.52$
|664>   Q  0.6645  8.49$  17.79$  20.13$
|665>   Q  0.6645  8.75$  17.78$  21.73$
|666>   Q  -1.3290  8.79$  17.51$  20.89$
|667>   Q  0.6645  19.85$  7.77$  6.53$
|668>   Q  0.6645  20.57$  6.48$  6.8$
|669>   Q  -1.3290  19.99$  6.96$  6.43$
|670>   Q  0.6645  18.7$  6.17$  5.14$
|671>   Q  0.6645  19.04$  5.68$  3.75$
|672>   Q  -1.3290  18.5$  5.84$  4.41$
|673>   Q  0.6645  20.17$  10.07$  10.45$
|674>   Q  0.6645  21.65$  10.05$  10.14$
|675>   Q  -1.3290  20.98$  10.3$  10.6$
|676>   Q  0.6645  9.96$  14.48$  20.88$
|677>   Q  0.6645  9.98$  14.29$  19.36$
|678>   Q  -1.3290  10.23$  14.16$  20.15$
|679>   Q  0.6645  8.4$  6.46$  20.73$
|680>   Q  0.6645  7.5$  6.31$  21.99$
|681>   Q  -1.3290  7.99$  6.04$  21.34$
|682>   Q  0.6645  14.27$  4.8$  17.94$
|683>   Q  0.6645  13.8$  3.27$  17.61$
|684>   Q  -1.3290  14.32$  3.97$  17.65$
|685> *
|686> 
|687>                          ****END OF INPUT****
================================================================================

                     *******************************
                     * Energy+Gradient Calculation *
                     *******************************

---------------------------------
CARTESIAN COORDINATES (ANGSTROEM)
---------------------------------
  C     11.790000   11.700000   12.710000
  H     12.440000   11.790000   11.850000
  H     12.390000   11.710000   13.580000
  C     10.740000   10.540000   12.530000
  H     11.310000    9.670000   12.850000
  H     10.040000   10.700000   13.370000
  C     10.130000   10.260000   11.110000
  H      9.750000   11.180000   10.780000
  H      9.250000    9.630000   11.200000
  C     11.070000    9.760000   10.160000
  H     11.220000    8.750000   10.520000
  H     12.010000   10.310000   10.160000
  O     10.510000    9.610000    8.810000
  H     11.240000    9.580000    8.110000
  O     10.980000   12.940000   12.740000
  H     10.260000   12.930000   13.340000
  O     12.540000    9.270000    6.730000
  H     11.850000    9.220000    6.110000
  H     12.830000    8.450000    7.200000
  O     13.910000   11.870000    7.270000
  H     13.380000   11.190000    6.880000
  H     13.390000   12.670000    7.450000
  O     13.450000    9.290000   13.990000
  H     12.820000    8.530000   14.080000
  H     13.340000    9.830000   14.800000
  O     10.260000   12.300000   16.690000
  H     10.010000   11.390000   16.790000
  H      9.670000   12.660000   16.010000
  O     14.770000   12.700000   13.960000
  H     14.970000   12.250000   13.140000
  H     15.600000   13.000000   14.380000
  O     10.400000    9.250000    4.880000
  H     10.290000    8.300000    5.140000
  H      9.610000    9.690000    5.120000
  O     12.390000    6.130000   10.930000
  H     13.200000    5.820000   11.320000
  H     11.790000    5.400000   10.770000
  O     12.500000   14.170000   17.260000
  H     13.340000   13.800000   17.730000
  H     11.800000   13.500000   17.220000
  O     13.630000   11.120000   16.030000
  H     13.100000   11.520000   16.660000
  H     13.990000   11.860000   15.460000
  O     11.380000    7.260000   13.570000
  H     11.550000    6.390000   13.890000
  H     11.560000    7.180000   12.630000
  O     16.330000   11.390000   11.890000
  H     16.910000   12.180000   11.930000
  H     15.820000   11.560000   11.080000
  O     13.410000   15.500000   13.850000
  H     12.720000   15.490000   13.180000
  H     13.500000   14.620000   14.120000
  O      7.740000   12.470000   10.420000
  H      7.460000   12.910000   11.270000
  H      7.680000   11.490000   10.670000
  O      6.950000    9.970000    9.390000
  H      7.380000    9.320000    8.830000
  H      6.370000   10.490000    8.780000
  O     14.640000    8.310000   16.750000
  H     14.760000    7.970000   15.830000
  H     14.490000    7.590000   17.370000
  O      8.820000   13.600000   14.840000
  H      7.850000   13.640000   14.820000
  H      9.120000   14.430000   14.420000
  O      8.740000   14.580000   17.960000
  H      7.850000   14.180000   18.030000
  H      9.370000   13.930000   17.540000
  O      8.880000    7.490000    8.510000
  H      9.470000    8.340000    8.610000
  H      8.360000    7.610000    7.730000
  O     12.440000   14.520000    7.510000
  H     12.860000   15.390000    7.710000
  H     11.560000   14.520000    7.900000
  O     10.270000   11.890000    7.270000
  H     10.100000   11.090000    7.720000
  H     10.570000   12.500000    7.940000
  O     14.970000   10.620000    9.650000
  H     14.530000   11.120000    8.930000
  H     15.590000   10.080000    9.130000
  O      9.020000    7.690000   14.590000
  H      8.990000    7.420000   15.510000
  H      9.920000    7.600000   14.320000
  O      7.810000   10.310000   14.600000
  H      7.290000   10.520000   15.390000
  H      7.890000    9.310000   14.630000
  O     14.130000    8.640000   11.550000
  H     14.080000    9.140000   12.430000
  H     14.620000    9.290000   11.020000
  O     11.550000   15.110000   11.350000
  H     11.620000   14.210000   11.790000
  H     12.380000   15.280000   10.900000
  O     17.340000   12.660000   15.090000
  H     17.860000   13.390000   15.380000
  H     17.810000   12.120000   14.420000
  O     13.270000    7.170000    8.440000
  H     12.920000    7.150000    9.330000
  H     14.210000    6.970000    8.340000
  O     16.000000   11.570000    5.530000
  H     15.880000   12.020000    4.690000
  H     15.400000   11.840000    6.210000
  Q     11.560000   10.770000   19.250000
  Q     11.120000   12.010000   20.040000
  Q     11.090000   11.190000   19.750000
  Q     11.450000    2.490000   17.930000
  Q     11.720000    1.430000   19.040000
  Q     11.500000    2.190000   18.720000
  Q     19.060000   16.000000    8.210000
  Q     20.360000   16.660000    8.120000
  Q     19.560000   16.540000    7.870000
  Q      6.850000    3.310000    8.210000
  Q      6.650000    2.310000    6.970000
  Q      6.940000    2.960000    7.420000
  Q     18.230000   19.360000   11.990000
  Q     18.130000   18.620000   10.590000
  Q     18.490000   18.900000   11.340000
  Q      9.300000    9.660000    2.150000
  Q      7.830000   10.130000    2.440000
  Q      8.450000    9.740000    2.010000
  Q      8.610000   14.950000    2.720000
  Q      7.210000   15.530000    3.120000
  Q      8.030000   15.270000    3.240000
  Q     14.480000    3.250000    2.630000
  Q     13.130000    3.400000    3.500000
  Q     13.720000    3.040000    3.000000
  Q     19.990000    6.630000   12.800000
  Q     18.940000    5.820000   12.160000
  Q     19.650000    5.920000   12.590000
  Q      9.580000   19.370000   14.750000
  Q      8.950000   20.000000   13.360000
  Q      9.220000   19.980000   14.220000
  Q     11.870000   15.780000   16.630000
  Q     11.710000   16.840000   15.400000
  Q     11.670000   16.530000   16.240000
  Q     15.710000    7.110000    6.140000
  Q     16.060000    5.760000    6.940000
  Q     15.780000    6.560000    6.800000
  Q      5.220000    0.700000   10.120000
  Q      5.490000    1.970000    9.160000
  Q      5.220000    1.180000    9.390000
  Q     19.140000    5.810000   14.420000
  Q     19.710000    5.730000   15.840000
  Q     19.080000    5.760000   15.250000
  Q      7.700000   18.880000    8.080000
  Q      6.440000   19.360000    8.720000
  Q      7.220000   19.440000    8.500000
  Q      4.760000   18.780000    6.830000
  Q      4.950000   17.240000    7.010000
  Q      4.710000   18.020000    7.240000
  Q      4.730000    4.270000   13.140000
  Q      5.270000    2.990000   12.740000
  Q      5.000000    3.720000   12.590000
  Q      6.150000   12.460000   13.330000
  Q      7.010000   11.360000   13.390000
  Q      6.470000   11.820000   12.990000
  Q     18.960000    6.600000    8.120000
  Q     19.060000    5.700000    9.380000
  Q     19.010000    6.410000    8.930000
  Q      2.790000    8.240000   16.330000
  Q      1.910000    7.550000   15.250000
  Q      2.050000    7.900000   16.000000
  Q     20.660000    9.400000    7.360000
  Q     19.430000   10.360000    7.280000
  Q     19.820000    9.630000    7.400000
  Q     13.620000   18.510000   18.470000
  Q     12.420000   17.990000   17.690000
  Q     12.800000   18.520000   18.210000
  Q      9.960000    4.250000    9.970000
  Q     11.020000    4.270000    8.860000
  Q     10.670000    4.020000    9.580000
  Q     13.930000    6.770000   19.690000
  Q     15.220000    6.270000   19.090000
  Q     14.380000    6.340000   19.130000
  Q     11.780000   18.050000   19.820000
  Q     10.670000   17.790000   20.770000
  Q     11.470000   17.960000   20.570000
  Q      4.360000    8.500000    5.200000
  Q      3.530000    9.480000    6.090000
  Q      4.260000    9.110000    5.750000
  Q      4.770000   15.100000    5.890000
  Q      6.340000   15.220000    6.260000
  Q      5.520000   15.500000    6.110000
  Q     14.630000    4.350000   13.020000
  Q     15.560000    4.180000   11.860000
  Q     14.980000    4.550000   12.280000
  Q     11.870000    2.350000   10.210000
  Q     12.110000    0.900000   10.620000
  Q     12.340000    1.670000   10.410000
  Q     11.400000   21.380000   12.180000
  Q     11.680000   20.230000   11.080000
  Q     11.280000   20.890000   11.450000
  Q     11.240000    4.570000    0.190000
  Q      9.680000    4.770000    0.370000
  Q     10.510000    4.740000    0.610000
  Q      4.500000   14.980000   19.270000
  Q      4.210000   13.500000   19.780000
  Q      4.390000   14.110000   19.220000
  Q     10.100000   17.720000   10.510000
  Q      9.890000   16.480000   11.400000
  Q      9.760000   17.250000   11.120000
  Q      8.590000   14.300000    6.350000
  Q      8.880000   15.310000    5.190000
  Q      8.970000   14.960000    5.970000
  Q     17.250000   17.880000   16.090000
  Q     18.630000   18.090000   16.920000
  Q     18.010000   17.670000   16.460000
  Q      6.620000   13.110000    7.370000
  Q      6.130000   12.960000    6.010000
  Q      6.730000   13.090000    6.550000
  Q      8.440000    4.750000    3.380000
  Q      8.740000    5.900000    4.250000
  Q      8.260000    5.480000    3.740000
  Q      4.360000   11.570000   16.430000
  Q      3.350000   11.280000   15.180000
  Q      3.730000   11.710000   15.850000
  Q      7.500000   16.830000    8.320000
  Q      8.480000   16.350000    7.170000
  Q      8.100000   16.910000    7.710000
  Q     10.720000   14.880000    1.810000
  Q     10.040000   13.440000    1.620000
  Q     10.090000   14.300000    1.580000
  Q     12.920000    8.340000   21.030000
  Q     14.340000    8.200000   21.650000
  Q     13.760000    8.200000   21.020000
  Q      2.760000   14.210000   16.550000
  Q      2.160000   15.620000   16.550000
  Q      2.250000   14.810000   16.270000
  Q      3.470000   16.380000    9.190000
  Q      2.520000   15.180000    9.670000
  Q      2.790000   15.800000    9.140000
  Q      8.980000    6.170000   17.050000
  Q      8.740000    7.400000   17.770000
  Q      8.530000    6.810000   17.150000
  Q     13.030000    9.480000    2.650000
  Q     11.740000    9.120000    3.470000
  Q     12.490000    8.960000    3.070000
  Q      8.840000   10.770000   19.770000
  Q      7.720000   10.550000   20.740000
  Q      8.160000   10.380000   20.070000
  Q     16.360000   18.050000   18.540000
  Q     15.720000   16.990000   17.510000
  Q     15.770000   17.500000   18.240000
  Q      8.540000   16.590000   14.530000
  Q      8.390000   17.020000   13.100000
  Q      8.580000   16.470000   13.680000
  Q     17.060000   18.140000    8.370000
  Q     15.960000   18.580000    9.300000
  Q     16.700000   18.260000    9.100000
  Q     14.550000   15.790000   15.510000
  Q     15.300000   14.840000   16.440000
  Q     15.210000   15.520000   15.940000
  Q     17.580000   10.980000   20.930000
  Q     16.150000   11.640000   20.730000
  Q     16.990000   11.600000   20.880000
  Q     17.010000   15.560000   14.610000
  Q     17.570000   14.610000   13.480000
  Q     17.430000   15.390000   13.860000
  Q      8.140000   19.050000   11.280000
  Q      7.120000   19.190000   12.410000
  Q      7.670000   19.450000   11.840000
  Q      8.170000   15.740000   16.620000
  Q      8.290000   17.280000   16.690000
  Q      7.970000   16.520000   16.400000
  Q      8.130000    1.760000   15.960000
  Q      8.490000    2.270000   17.420000
  Q      8.510000    2.270000   16.550000
  Q     14.590000   16.190000    9.800000
  Q     14.680000   16.720000   11.320000
  Q     14.310000   16.500000   10.570000
  Q     14.390000    1.670000    7.460000
  Q     13.990000    2.350000    8.840000
  Q     14.490000    2.160000    8.140000
  Q      5.530000    8.450000    6.970000
  Q      6.130000    7.950000    8.310000
  Q      6.090000    8.090000    7.490000
  Q      8.030000   19.600000   18.900000
  Q      6.640000   19.630000   19.420000
  Q      7.340000   19.250000   19.190000
  Q     14.980000   16.400000    6.950000
  Q     14.520000   17.340000    8.070000
  Q     14.560000   16.590000    7.640000
  Q     13.110000    2.520000   12.160000
  Q     12.420000    2.040000   13.380000
  Q     12.990000    2.470000   13.000000
  Q     10.580000   18.050000   16.540000
  Q     10.090000   19.540000   16.960000
  Q     10.070000   18.750000   16.600000
  Q     13.710000   12.820000    1.560000
  Q     13.730000   11.640000    0.620000
  Q     13.500000   12.070000    1.310000
  Q      6.230000   11.180000   17.440000
  Q      5.570000    9.930000   16.930000
  Q      6.000000   10.640000   16.870000
  Q     12.730000    4.240000    7.190000
  Q     12.480000    5.650000    7.550000
  Q     12.250000    4.900000    7.290000
  Q      3.950000    9.070000   17.890000
  Q      4.750000    7.800000   17.410000
  Q      4.330000    8.540000   17.330000
  Q     13.750000   15.100000   19.570000
  Q     12.390000   14.280000   20.070000
  Q     13.240000   14.500000   19.970000
  Q      7.370000    8.040000    1.930000
  Q      7.010000    6.640000    2.510000
  Q      6.850000    7.380000    2.110000
  Q     12.030000   18.660000   13.720000
  Q     10.900000   17.890000   12.860000
  Q     11.360000   18.100000   13.560000
  Q      9.780000   17.610000    8.120000
  Q     10.550000   18.910000    7.870000
  Q     10.340000   18.220000    8.320000
  Q     18.180000   14.080000   18.470000
  Q     17.900000   13.150000   19.700000
  Q     18.330000   13.720000   19.250000
  Q      1.710000   13.670000   11.700000
  Q      2.660000   12.840000   10.670000
  Q      2.220000   13.530000   11.010000
  Q      2.960000   10.910000   19.020000
  Q      3.910000   10.420000   20.150000
  Q      3.550000   10.370000   19.400000
  Q      8.790000    8.660000   19.690000
  Q     10.120000    7.870000   19.820000
  Q      9.330000    8.020000   19.550000
  Q     10.360000    2.000000    4.410000
  Q     10.380000    2.260000    5.960000
  Q     10.620000    2.360000    5.140000
  Q     13.730000    9.720000   17.810000
  Q     13.620000    9.330000   19.290000
  Q     13.490000    9.830000   18.630000
  Q     12.160000   14.320000    5.540000
  Q     11.630000   13.410000    4.500000
  Q     12.090000   14.060000    4.790000
  Q     20.810000    9.020000   12.430000
  Q     20.450000    8.990000   13.990000
  Q     20.760000    8.700000   13.250000
  Q      2.470000   19.610000   11.990000
  Q      3.320000   18.230000   11.910000
  Q      2.860000   18.900000   12.290000
  Q      5.930000    4.800000    6.870000
  Q      5.780000    6.260000    6.770000
  Q      5.540000    5.490000    6.650000
  Q     19.230000   13.970000   11.230000
  Q     17.720000   14.300000   10.810000
  Q     18.370000   13.830000   11.190000
  Q      5.860000   14.960000    9.310000
  Q      6.480000   15.590000   10.500000
  Q      6.080000   15.590000    9.760000
  Q      8.760000    2.390000    2.900000
  Q      9.490000    3.100000    1.710000
  Q      9.070000    3.030000    2.470000
  Q     20.520000   11.050000   15.110000
  Q     21.280000   10.310000   16.290000
  Q     21.200000   10.790000   15.570000
  Q     13.710000   19.460000    8.820000
  Q     14.650000   20.210000    7.830000
  Q     14.400000   19.550000    8.300000
  Q      5.400000    3.460000    4.480000
  Q      6.340000    4.620000    4.190000
  Q      5.720000    4.090000    4.020000
  Q     15.590000   12.780000   17.870000
  Q     15.720000   13.980000   18.790000
  Q     15.390000   13.550000   18.160000
  Q      5.240000   14.260000   14.210000
  Q      5.380000   13.300000   15.400000
  Q      5.640000   13.780000   14.770000
  Q      8.850000    2.710000    7.660000
  Q      9.220000    1.290000    8.040000
  Q      9.320000    2.020000    7.620000
  Q      4.040000   16.110000   13.810000
  Q      3.350000   15.130000   12.850000
  Q      3.950000   15.670000   13.120000
  Q     16.820000   11.730000   16.470000
  Q     15.660000   10.760000   16.780000
  Q     16.330000   11.290000   16.960000
  Q      6.550000    6.220000   17.540000
  Q      5.520000    6.120000   18.580000
  Q      5.770000    6.220000   17.800000
  Q     17.860000   10.630000    9.700000
  Q     18.360000   12.080000   10.110000
  Q     18.210000   11.390000    9.590000
  Q      6.960000   14.330000   20.060000
  Q      7.770000   15.600000   20.530000
  Q      7.250000   14.920000   20.610000
  Q     21.070000   12.670000   10.220000
  Q     21.730000   13.930000    9.650000
  Q     21.120000   13.480000   10.010000
  Q     10.800000    7.400000    2.600000
  Q     10.030000    6.610000    1.630000
  Q     10.160000    7.270000    2.110000
  Q      1.730000   14.490000   14.290000
  Q      1.250000   15.740000   13.610000
  Q      1.510000   14.940000   13.620000
  Q     16.020000    7.420000    1.630000
  Q     16.020000    8.860000    1.340000
  Q     15.870000    8.080000    1.130000
  Q      2.020000   11.070000    6.440000
  Q      1.810000    9.730000    7.220000
  Q      2.220000   10.430000    6.950000
  Q      7.290000    9.580000    6.230000
  Q      7.320000   11.000000    5.820000
  Q      7.640000   10.250000    5.900000
  Q      4.750000   19.110000   16.770000
  Q      4.830000   19.390000   15.240000
  Q      4.710000   19.590000   16.080000
  Q      8.070000    4.700000   13.010000
  Q      8.380000    3.230000   12.330000
  Q      8.550000    4.020000   12.730000
  Q      7.380000   12.300000    2.560000
  Q      8.110000   12.140000    3.960000
  Q      7.600000   11.930000    3.310000
  Q      5.710000   15.950000   15.450000
  Q      4.970000   16.710000   16.480000
  Q      5.150000   16.490000   15.690000
  Q      1.570000    5.900000   13.390000
  Q      0.840000    7.270000   13.120000
  Q      1.450000    6.750000   13.410000
  Q      4.860000   12.750000    9.100000
  Q      6.440000   13.040000    9.540000
  Q      5.680000   13.030000    9.040000
  Q      3.280000    4.960000    9.320000
  Q      3.850000    4.710000    7.940000
  Q      3.290000    4.570000    8.570000
  Q     10.830000    8.340000   22.140000
  Q     10.970000    9.590000   21.170000
  Q     11.110000    8.790000   21.460000
  Q     13.980000   19.860000   13.000000
  Q     13.870000   19.440000   14.580000
  Q     13.600000   19.710000   13.770000
  Q      3.560000   10.450000   12.320000
  Q      5.040000   10.600000   12.040000
  Q      4.280000   10.230000   11.970000
  Q      5.140000   17.560000    9.980000
  Q      4.220000   18.610000    9.250000
  Q      4.620000   18.260000    9.940000
  Q      9.820000   21.410000   10.350000
  Q      8.340000   21.120000    9.720000
  Q      9.080000   21.570000    9.880000
  Q     10.030000   12.260000    5.670000
  Q      9.740000   13.420000    4.740000
  Q      9.930000   12.610000    4.900000
  Q      1.690000    7.630000    9.760000
  Q      2.520000    8.750000   10.100000
  Q      1.900000    8.410000    9.710000
  Q     16.710000    6.080000   11.850000
  Q     17.400000    6.000000   10.460000
  Q     17.350000    6.060000   11.300000
  Q     21.140000   14.620000   13.850000
  Q     19.720000   15.190000   13.950000
  Q     20.310000   14.630000   13.710000
  Q     12.220000   16.800000    2.340000
  Q     11.890000   16.020000    3.520000
  Q     11.710000   16.460000    2.860000
  Q      4.390000   17.630000   18.670000
  Q      5.860000   18.080000   18.360000
  Q      5.080000   17.780000   18.170000
  Q     10.000000    0.150000   13.930000
  Q      9.870000    1.460000   13.170000
  Q     10.280000    0.850000   13.550000
  Q     16.200000    3.480000    7.470000
  Q     17.650000    3.590000    7.220000
  Q     16.870000    3.900000    7.230000
  Q     18.030000    8.500000   14.750000
  Q     18.890000    7.560000   15.690000
  Q     18.610000    8.300000   15.360000
  Q     12.450000    1.590000   15.990000
  Q     11.330000    2.690000   15.690000
  Q     12.000000    2.350000   16.080000
  Q     19.230000   17.440000   13.910000
  Q     19.900000   17.270000   12.620000
  Q     19.890000   17.370000   13.430000
  Q     15.750000    3.480000   14.730000
  Q     14.900000    4.150000   15.700000
  Q     15.420000    4.160000   15.080000
  Q     16.540000    9.890000   12.900000
  Q     16.220000    8.500000   13.590000
  Q     16.730000    9.150000   13.280000
  Q     15.710000    6.150000   14.360000
  Q     14.890000    7.060000   13.340000
  Q     15.390000    6.880000   14.000000
  Q     13.400000   -0.060000   14.520000
  Q     14.130000    1.360000   14.720000
  Q     13.770000    0.610000   14.960000
  Q      8.300000   11.890000    0.890000
  Q      8.110000   13.330000    0.120000
  Q      7.880000   12.560000    0.540000
  Q      4.710000    7.160000   10.710000
  Q      5.670000    8.270000   10.460000
  Q      5.210000    7.620000   10.250000
  Q      5.340000   17.880000   14.240000
  Q      4.910000   19.010000   13.190000
  Q      5.410000   18.570000   13.700000
  Q      5.870000   13.020000   18.480000
  Q      7.100000   12.350000   19.170000
  Q      6.690000   12.790000   18.560000
  Q     10.400000    4.140000   13.740000
  Q     11.990000    3.860000   13.970000
  Q     11.170000    4.210000   14.080000
  Q      3.010000   14.540000    7.060000
  Q      2.590000   15.280000    5.830000
  Q      2.860000   14.600000    6.260000
  Q      9.810000    6.900000    6.910000
  Q     10.640000    5.920000    5.980000
  Q     10.070000    6.550000    6.160000
  Q     16.600000    5.820000    3.390000
  Q     15.020000    5.800000    3.200000
  Q     15.860000    5.750000    2.940000
  Q     18.550000   15.640000   16.730000
  Q     19.500000   14.470000   16.260000
  Q     18.830000   14.820000   16.630000
  Q     13.910000   14.660000   -0.070000
  Q     15.340000   14.790000    0.250000
  Q     14.550000   14.870000    0.420000
  Q      2.120000   11.900000   17.260000
  Q      1.000000   11.890000   18.080000
  Q      1.790000   12.050000   17.950000
  Q     15.270000   20.790000   10.920000
  Q     15.450000   19.290000   11.550000
  Q     15.150000   20.080000   11.440000
  Q      1.510000   10.700000   14.420000
  Q      2.360000    9.480000   14.160000
  Q      2.200000   10.310000   14.150000
  Q      7.740000   21.060000   15.290000
  Q      6.390000   21.160000   16.120000
  Q      7.010000   21.410000   15.580000
  Q     17.540000    8.480000    3.440000
  Q     18.710000    7.770000    3.900000
  Q     18.350000    8.350000    3.460000
  Q      8.030000   17.830000    4.050000
  Q      8.150000   17.850000    5.600000
  Q      7.780000   18.030000    4.860000
  Q      6.500000    6.940000   12.790000
  Q      8.070000    6.960000   13.210000
  Q      7.360000    6.720000   12.810000
  Q     16.200000   19.690000   14.870000
  Q     15.430000   19.900000   16.160000
  Q     15.590000   19.480000   15.420000
  Q      4.760000    6.500000    4.650000
  Q      5.150000    7.370000    3.540000
  Q      4.590000    7.030000    4.050000
  Q      4.040000   10.760000   10.220000
  Q      3.240000   11.020000    8.950000
  Q      3.670000   11.240000    9.640000
  Q     11.470000   11.550000    1.890000
  Q     10.190000   11.570000    2.940000
  Q     10.630000   11.640000    2.170000
  Q     14.280000   11.150000   19.840000
  Q     14.300000   12.630000   20.300000
  Q     14.470000   11.800000   20.340000
  Q     19.290000   11.130000   12.830000
  Q     19.720000   12.520000   13.380000
  Q     19.520000   11.710000   13.400000
  Q     14.990000   11.060000    2.640000
  Q     14.890000    9.790000    3.560000
  Q     15.050000   10.240000    2.830000
  Q     16.720000    2.240000   10.780000
  Q     17.750000    3.300000   10.620000
  Q     17.120000    2.910000   11.020000
  Q      4.480000    5.850000   14.760000
  Q      4.700000    4.590000   15.350000
  Q      4.280000    5.090000   14.890000
  Q     10.510000   14.400000    9.890000
  Q      9.150000   13.900000    9.370000
  Q      9.960000   14.150000    9.320000
  Q     17.230000   15.130000   20.220000
  Q     16.070000   16.070000   19.690000
  Q     16.400000   15.390000   20.110000
  Q     16.770000   15.170000    8.590000
  Q     16.760000   16.250000    9.590000
  Q     16.850000   15.450000    9.340000
  Q      9.640000    3.870000   16.920000
  Q     10.740000    4.740000   16.320000
  Q     10.060000    4.600000   16.830000
  Q      3.610000    4.930000   11.440000
  Q      2.100000    5.180000   11.490000
  Q      2.890000    5.300000   11.230000
  Q     13.310000    7.360000    3.510000
  Q     12.760000    5.980000    3.820000
  Q     13.380000    6.570000    3.760000
  Q      8.600000    6.090000    9.530000
  Q      8.550000    5.890000   10.960000
  Q      8.510000    5.630000   10.220000
  Q     17.060000    7.300000   17.310000
  Q     17.140000    5.900000   16.890000
  Q     17.110000    6.490000   17.440000
  Q      7.160000   15.250000   12.770000
  Q      5.750000   15.190000   12.200000
  Q      6.590000   15.080000   12.210000
  Q      4.600000   11.130000    4.880000
  Q      5.800000   11.800000    4.180000
  Q      5.090000   11.800000    4.670000
  Q     14.380000    8.480000    5.050000
  Q     15.500000    9.500000    5.450000
  Q     15.180000    8.830000    5.040000
  Q     17.470000    9.060000    8.290000
  Q     16.370000    8.120000    7.690000
  Q     16.680000    8.820000    8.090000
  Q     10.710000    4.620000    3.070000
  Q     11.190000    4.110000    4.400000
  Q     11.160000    4.660000    3.780000
  Q     14.890000   17.580000   13.420000
  Q     16.240000   16.880000   13.120000
  Q     15.560000   17.370000   12.940000
  Q      4.270000   14.540000    2.800000
  Q      4.560000   13.210000    3.350000
  Q      4.240000   13.730000    2.800000
  Q      5.940000    3.460000   10.680000
  Q      6.740000    4.490000   10.010000
  Q      6.300000    3.800000   10.030000
  Q      3.540000    7.040000   12.740000
  Q      4.470000    8.320000   12.650000
  Q      4.220000    7.550000   12.890000
  Q      7.240000    5.470000   15.430000
  Q      7.420000    3.930000   15.930000
  Q      7.010000    4.640000   15.600000
  Q     17.980000   11.850000    6.080000
  Q     18.400000   12.310000    7.580000
  Q     18.500000   12.060000    6.730000
  Q     15.050000   16.370000    4.660000
  Q     14.040000   15.280000    4.790000
  Q     14.790000   15.630000    4.900000
  Q     18.860000    8.150000   10.280000
  Q     18.370000    8.580000   11.700000
  Q     18.600000    8.680000   10.900000
  Q     11.910000   18.390000    9.370000
  Q     13.080000   18.180000   10.390000
  Q     12.440000   18.600000   10.000000
  Q     15.040000   13.950000    3.550000
  Q     16.230000   13.480000    2.630000
  Q     15.680000   13.450000    3.270000
  Q      8.180000    0.720000   11.270000
  Q      7.060000    1.240000   12.230000
  Q      7.820000    1.220000   11.880000
  Q     16.410000   15.030000    6.050000
  Q     17.610000   14.200000    6.340000
  Q     17.060000   14.770000    6.510000
  Q     17.780000   10.070000   17.690000
  Q     18.780000    9.430000   16.870000
  Q     18.550000    9.830000   17.520000
  Q      8.490000   17.790000   20.130000
  Q      8.750000   17.780000   21.730000
  Q      8.790000   17.510000   20.890000
  Q     19.850000    7.770000    6.530000
  Q     20.570000    6.480000    6.800000
  Q     19.990000    6.960000    6.430000
  Q     18.700000    6.170000    5.140000
  Q     19.040000    5.680000    3.750000
  Q     18.500000    5.840000    4.410000
  Q     20.170000   10.070000   10.450000
  Q     21.650000   10.050000   10.140000
  Q     20.980000   10.300000   10.600000
  Q      9.960000   14.480000   20.880000
  Q      9.980000   14.290000   19.360000
  Q     10.230000   14.160000   20.150000
  Q      8.400000    6.460000   20.730000
  Q      7.500000    6.310000   21.990000
  Q      7.990000    6.040000   21.340000
  Q     14.270000    4.800000   17.940000
  Q     13.800000    3.270000   17.610000
  Q     14.320000    3.970000   17.650000

----------------------------
CARTESIAN COORDINATES (A.U.)
----------------------------
  NO LB      ZA    FRAG     MASS         X           Y           Z
   0 C     6.0000    0    12.011   22.279871   22.109796   24.018419
   1 H     1.0000    0     1.008   23.508193   22.279871   22.393255
   2 H     1.0000    0     1.008   23.413707   22.128693   25.662481
   3 C     6.0000    0    12.011   20.295659   19.917713   23.678268
   4 H     1.0000    0     1.008   21.372803   18.273652   24.282981
   5 H     1.0000    0     1.008   18.972850   20.220070   25.265638
   6 C     6.0000    0    12.011   19.142926   19.388590   20.994857
   7 H     1.0000    0     1.008   18.424830   21.127138   20.371248
   8 H     1.0000    0     1.008   17.479967   18.198063   21.164933
   9 C     6.0000    0    12.011   20.919268   18.443727   19.199618
  10 H     1.0000    0     1.008   21.202727   16.535104   19.879919
  11 H     1.0000    0     1.008   22.695611   19.483076   19.199618
  12 O     8.0000    0    15.999   19.861022   18.160268   16.648487
  13 H     1.0000    0     1.008   21.240522   18.103576   15.325679
  14 O     8.0000    0    15.999   20.749193   24.453056   24.075111
  15 H     1.0000    0     1.008   19.388590   24.434159   25.208947
  16 O     8.0000    0    15.999   23.697166   17.517761   12.717857
  17 H     1.0000    0     1.008   22.393255   17.423275   11.546227
  18 H     1.0000    0     1.008   24.245186   15.968186   13.606028
  19 O     8.0000    0    15.999   26.286091   22.431049   13.738309
  20 H     1.0000    0     1.008   25.284536   21.146035   13.001316
  21 H     1.0000    0     1.008   25.303433   23.942830   14.078460
  22 O     8.0000    0    15.999   25.416817   17.555556   26.437269
  23 H     1.0000    0     1.008   24.226289   16.119364   26.607344
  24 H     1.0000    0     1.008   25.208947   18.576008   27.967947
  25 O     8.0000    0    15.999   19.388590   23.243631   31.539529
  26 H     1.0000    0     1.008   18.916159   21.523981   31.728502
  27 H     1.0000    0     1.008   18.273652   23.923933   30.254515
  28 O     8.0000    0    15.999   27.911255   23.999522   26.380577
  29 H     1.0000    0     1.008   28.289200   23.149145   24.831001
  30 H     1.0000    0     1.008   29.479728   24.566440   27.174262
  31 O     8.0000    0    15.999   19.653152   17.479967    9.221864
  32 H     1.0000    0     1.008   19.445282   15.684727    9.713192
  33 H     1.0000    0     1.008   18.160268   18.311446    9.675398
  34 O     8.0000    0    15.999   23.413707   11.584021   20.654707
  35 H     1.0000    0     1.008   24.944385   10.998206   21.391700
  36 H     1.0000    0     1.008   22.279871   10.204521   20.352350
  37 O     8.0000    0    15.999   23.621577   26.777419   32.616673
  38 H     1.0000    0     1.008   25.208947   26.078221   33.504844
  39 H     1.0000    0     1.008   22.298768   25.511303   32.541084
  40 O     8.0000    0    15.999   25.756967   21.013755   30.292310
  41 H     1.0000    0     1.008   24.755412   21.769645   31.482837
  42 H     1.0000    0     1.008   26.437269   22.412152   29.215166
  43 O     8.0000    0    15.999   21.505083   13.719412   25.643584
  44 H     1.0000    0     1.008   21.826337   12.075350   26.248296
  45 H     1.0000    0     1.008   21.845234   13.568234   23.867241
  46 O     8.0000    0    15.999   30.859228   21.523981   22.468844
  47 H     1.0000    0     1.008   31.955269   23.016864   22.544433
  48 H     1.0000    0     1.008   29.895467   21.845234   20.938166
  49 O     8.0000    0    15.999   25.341227   29.290755   26.172707
  50 H     1.0000    0     1.008   24.037316   29.271858   24.906590
  51 H     1.0000    0     1.008   25.511303   27.627796   26.682933
  52 O     8.0000    0    15.999   14.626480   23.564885   19.690946
  53 H     1.0000    0     1.008   14.097357   24.396364   21.297214
  54 H     1.0000    0     1.008   14.513097   21.712953   20.163378
  55 O     8.0000    0    15.999   13.133597   18.840570   17.744528
  56 H     1.0000    0     1.008   13.946179   17.612248   16.686282
  57 H     1.0000    0     1.008   12.037555   19.823227   16.591795
  58 O     8.0000    0    15.999   27.665591   15.703624   31.652913
  59 H     1.0000    0     1.008   27.892358   15.061117   29.914365
  60 H     1.0000    0     1.008   27.382132   14.343021   32.824543
  61 O     8.0000    0    15.999   16.667385   25.700275   28.043536
  62 H     1.0000    0     1.008   14.834350   25.775864   28.005741
  63 H     1.0000    0     1.008   17.234302   27.268748   27.249851
  64 O     8.0000    0    15.999   16.516206   27.552207   33.939481
  65 H     1.0000    0     1.008   14.834350   26.796317   34.071762
  66 H     1.0000    0     1.008   17.706734   26.323885   33.145796
  67 O     8.0000    0    15.999   16.780768   14.154049   16.081569
  68 H     1.0000    0     1.008   17.895706   15.760316   16.270542
  69 H     1.0000    0     1.008   15.798110   14.380816   14.607583
  70 O     8.0000    0    15.999   23.508193   27.438823   14.191843
  71 H     1.0000    0     1.008   24.301878   29.082885   14.569788
  72 H     1.0000    0     1.008   21.845234   27.438823   14.928836
  73 O     8.0000    0    15.999   19.407487   22.468844   13.738309
  74 H     1.0000    0     1.008   19.086234   20.957063   14.588686
  75 H     1.0000    0     1.008   19.974405   23.621577   15.004426
  76 O     8.0000    0    15.999   28.289200   20.068892   18.235857
  77 H     1.0000    0     1.008   27.457721   21.013755   16.875254
  78 H     1.0000    0     1.008   29.460830   19.048439   17.253200
  79 O     8.0000    0    15.999   17.045330   14.531994   27.571104
  80 H     1.0000    0     1.008   16.988638   14.021768   29.309652
  81 H     1.0000    0     1.008   18.746083   14.361919   27.060878
  82 O     8.0000    0    15.999   14.758761   19.483076   27.590002
  83 H     1.0000    0     1.008   13.776104   19.879919   29.082885
  84 H     1.0000    0     1.008   14.909939   17.593350   27.646693
  85 O     8.0000    0    15.999   26.701830   16.327234   21.826337
  86 H     1.0000    0     1.008   26.607344   17.272097   23.489296
  87 H     1.0000    0     1.008   27.627796   17.555556   20.824782
  88 O     8.0000    0    15.999   21.826337   28.553762   21.448392
  89 H     1.0000    0     1.008   21.958618   26.853008   22.279871
  90 H     1.0000    0     1.008   23.394810   28.875015   20.598015
  91 O     8.0000    0    15.999   32.767851   23.923933   28.515967
  92 H     1.0000    0     1.008   33.750509   25.303433   29.063988
  93 H     1.0000    0     1.008   33.656022   22.903481   27.249851
  94 O     8.0000    0    15.999   25.076666   13.549336   15.949289
  95 H     1.0000    0     1.008   24.415262   13.511542   17.631145
  96 H     1.0000    0     1.008   26.853008   13.171391   15.760316
  97 O     8.0000    0    15.999   30.235618   21.864131   10.450186
  98 H     1.0000    0     1.008   30.008851   22.714508    8.862816
  99 H     1.0000    0     1.008   29.101782   22.374357   11.735199
 100 Q     0.6645    0     0.000   21.845234   20.352350   36.377228
 101 Q     0.6645    0     0.000   21.013755   22.695611   37.870112
 102 Q    -1.3290    0     0.000   20.957063   21.146035   37.322091
 103 Q     0.6645    0     0.000   21.637364    4.705418   33.882790
 104 Q     0.6645    0     0.000   22.147590    2.702308   35.980386
 105 Q    -1.3290    0     0.000   21.731851    4.138500   35.375673
 106 Q     0.6645    0     0.000   36.018180   30.235618   15.514652
 107 Q     0.6645    0     0.000   38.474824   31.482837   15.344576
 108 Q    -1.3290    0     0.000   36.963043   31.256070   14.872145
 109 Q     0.6645    0     0.000   12.944624    6.254994   15.514652
 110 Q     0.6645    0     0.000   12.566679    4.365267   13.171391
 111 Q    -1.3290    0     0.000   13.114699    5.593589   14.021768
 112 Q     0.6645    0     0.000   34.449707   36.585098   22.657816
 113 Q     0.6645    0     0.000   34.260735   35.186701   20.012200
 114 Q    -1.3290    0     0.000   34.941036   35.715824   21.429494
 115 Q     0.6645    0     0.000   17.574453   18.254754    4.062911
 116 Q     0.6645    0     0.000   14.796556   19.142926    4.610932
 117 Q    -1.3290    0     0.000   15.968186   18.405933    3.798350
 118 Q     0.6645    0     0.000   16.270542   28.251406    5.140055
 119 Q     0.6645    0     0.000   13.624925   29.347447    5.895946
 120 Q    -1.3290    0     0.000   15.174501   28.856118    6.122713
 121 Q     0.6645    0     0.000   27.363234    6.141610    4.969980
 122 Q     0.6645    0     0.000   24.812104    6.425069    6.614041
 123 Q    -1.3290    0     0.000   25.927043    5.744767    5.669178
 124 Q     0.6645    0     0.000   37.775625   12.528884   24.188495
 125 Q     0.6645    0     0.000   35.791413   10.998206   22.979070
 126 Q    -1.3290    0     0.000   37.133119   11.187179   23.791652
 127 Q     0.6645    0     0.000   18.103576   36.603995   27.873460
 128 Q     0.6645    0     0.000   16.913049   37.794523   25.246741
 129 Q    -1.3290    0     0.000   17.423275   37.756728   26.871906
 130 Q     0.6645    0     0.000   22.431049   29.819878   31.426146
 131 Q     0.6645    0     0.000   22.128693   31.822988   29.101782
 132 Q    -1.3290    0     0.000   22.053104   31.237173   30.689152
 133 Q     0.6645    0     0.000   29.687598   13.435953   11.602918
 134 Q     0.6645    0     0.000   30.349002   10.884823   13.114699
 135 Q    -1.3290    0     0.000   29.819878   12.396603   12.850138
 136 Q     0.6645    0     0.000    9.864370    1.322808   19.124028
 137 Q     0.6645    0     0.000   10.374596    3.722760   17.309891
 138 Q    -1.3290    0     0.000    9.864370    2.229877   17.744528
 139 Q     0.6645    0     0.000   36.169358   10.979309   27.249851
 140 Q     0.6645    0     0.000   37.246502   10.828131   29.933262
 141 Q    -1.3290    0     0.000   36.055975   10.884823   28.818324
 142 Q     0.6645    0     0.000   14.550891   35.678029   15.268987
 143 Q     0.6645    0     0.000   12.169836   36.585098   16.478412
 144 Q    -1.3290    0     0.000   13.643823   36.736276   16.062672
 145 Q     0.6645    0     0.000    8.995096   35.489057   12.906829
 146 Q     0.6645    0     0.000    9.354144   32.578879   13.246980
 147 Q    -1.3290    0     0.000    8.900610   34.052865   13.681617
 148 Q     0.6645    0     0.000    8.938405    8.069131   24.831001
 149 Q     0.6645    0     0.000    9.958857    5.650281   24.075111
 150 Q    -1.3290    0     0.000    9.448631    7.029781   23.791652
 151 Q     0.6645    0     0.000   11.621816   23.545988   25.190049
 152 Q     0.6645    0     0.000   13.246980   21.467289   25.303433
 153 Q    -1.3290    0     0.000   12.226528   22.336563   24.547542
 154 Q     0.6645    0     0.000   35.829207   12.472192   15.344576
 155 Q     0.6645    0     0.000   36.018180   10.771439   17.725631
 156 Q    -1.3290    0     0.000   35.923694   12.113145   16.875254
 157 Q     0.6645    0     0.000    5.272336   15.571343   30.859228
 158 Q     0.6645    0     0.000    3.609377   14.267432   28.818324
 159 Q    -1.3290    0     0.000    3.873939   14.928836   30.235618
 160 Q     0.6645    0     0.000   39.041742   17.763426   13.908384
 161 Q     0.6645    0     0.000   36.717379   19.577563   13.757206
 162 Q    -1.3290    0     0.000   37.454372   18.198063   13.983973
 163 Q     0.6645    0     0.000   25.738070   34.978831   34.903242
 164 Q     0.6645    0     0.000   23.470399   33.996173   33.429255
 165 Q    -1.3290    0     0.000   24.188495   34.997728   34.411913
 166 Q     0.6645    0     0.000   18.821672    8.031336   18.840570
 167 Q     0.6645    0     0.000   20.824782    8.069131   16.742974
 168 Q    -1.3290    0     0.000   20.163378    7.596699   18.103576
 169 Q     0.6645    0     0.000   26.323885   12.793446   37.208708
 170 Q     0.6645    0     0.000   28.761632   11.848583   36.074872
 171 Q    -1.3290    0     0.000   27.174262   11.980864   36.150461
 172 Q     0.6645    0     0.000   22.260974   34.109557   37.454372
 173 Q     0.6645    0     0.000   20.163378   33.618228   39.249612
 174 Q    -1.3290    0     0.000   21.675159   33.939481   38.871667
[...]
 368   Q   :    0.027094459    0.150729679    0.259829348
 369   Q   :   -0.186142460   -0.181846032   -0.074998779
 370   Q   :    0.154259271    0.037222935   -0.191410097
 371   Q   :    0.166326571    0.155730646   -0.181274244
 372   Q   :   -0.198381322   -0.156612574   -0.064411522
 373   Q   :    0.035766069   -0.007308076    0.247065872
 374   Q   :    0.282093756   -0.000982357   -0.071772820
 375   Q   :   -0.077785436   -0.032072539    0.298083467
 376   Q   :   -0.205041769    0.018728381   -0.224304462
 377   Q   :   -0.125703701   -0.261053413    0.042606361
 378   Q   :    0.039240238    0.193666974    0.162522152
 379   Q   :    0.082561809    0.057347950   -0.209130211
 380   Q   :   -0.093029278   -0.195125938   -0.193690439
 381   Q   :    0.165078725    0.210911277   -0.044009485
 382   Q   :   -0.074269276   -0.019659389    0.239795960
 383   Q   :   -0.001110975   -0.279965292    0.066140012
 384   Q   :    0.229811602    0.149846791   -0.131081176
 385   Q   :   -0.223146571    0.134164905    0.059268256
 386   Q   :    0.252520388    0.032078148    0.189563594
 387   Q   :   -0.033442421   -0.250904076   -0.169035347
 388   Q   :   -0.227409608    0.218882492   -0.018807721
 389   Q   :    0.074663568   -0.151117091    0.228307646
 390   Q   :   -0.088781865    0.279143785    0.014299883
 391   Q   :    0.002810425   -0.126006029   -0.244994247
 392   Q   :    0.065032360   -0.204311165    0.184974346
 393   Q   :    0.072388888    0.287219841    0.091196076
 394   Q   :   -0.130333793   -0.077826888   -0.282009675
 395   Q   :   -0.080147933    0.210333594   -0.181424292
 396   Q   :   -0.140816987   -0.227586689    0.073616607
 397   Q   :    0.210260847    0.025021337    0.107608291
 398   Q   :   -0.138275151   -0.238469927    0.129297233
 399   Q   :   -0.134430239    0.271431601   -0.023960241
 400   Q   :    0.267105629   -0.029709194   -0.107646007
 401   Q   :    0.016131566   -0.173395021    0.235090954
 402   Q   :    0.030503769   -0.077460962   -0.241272731
 403   Q   :   -0.058798671    0.256582132    0.005810535
 404   Q   :   -0.147310116    0.191406848    0.085065914
 405   Q   :   -0.054053865   -0.218881493   -0.105270801
 406   Q   :    0.196884418    0.028987549    0.019889934
 407   Q   :   -0.062680574    0.120737762   -0.221316129
 408   Q   :    0.162545015    0.080477332    0.207532092
 409   Q   :   -0.095343090   -0.197958741    0.018098035
 410   Q   :    0.208407409   -0.213364102   -0.083675290
 411   Q   :   -0.060170049    0.052299962    0.269188169
 412   Q   :   -0.152077005    0.149703171   -0.178652740
 413   Q   :    0.027280157   -0.281903632   -0.024444409
 414   Q   :   -0.210259632    0.164366677   -0.103372271
 415   Q   :    0.177355336    0.111960220    0.119173337
 416   Q   :   -0.248924365   -0.080169287    0.020922007
 417   Q   :    0.182083362    0.015366863    0.123009612
 418   Q   :    0.049380589    0.073695244   -0.144342969
 419   Q   :    0.016620747    0.143871154    0.247620722
 420   Q   :    0.194754647    0.054807118   -0.192720148
 421   Q   :   -0.209979978   -0.203986390   -0.059094862
 422   Q   :   -0.098724737   -0.137309512    0.224077504
 423   Q   :   -0.054734369    0.245200634   -0.075869842
 424   Q   :    0.141561654   -0.107172735   -0.133863600
 425   Q   :    0.121982793    0.033975231   -0.224851150
 426   Q   :    0.070340334   -0.085034491    0.220928617
 427   Q   :   -0.200760965    0.057372172    0.009153903
 428   Q   :   -0.249648986    0.085735619    0.123639499
 429   Q   :    0.234086383    0.119951443    0.021303282
 430   Q   :    0.010989476   -0.206799928   -0.145610334
 431   Q   :    0.152227053   -0.214941123    0.000356529
 432   Q   :   -0.123644546    0.103890677   -0.214516524
 433   Q   :   -0.031056294    0.125202625    0.220657576
 434   Q   :    0.202603945   -0.053897499    0.126339192
 435   Q   :   -0.218177169   -0.142618826   -0.041771343
 436   Q   :    0.006022071    0.202769628   -0.089899853
 437   Q   :    0.028491461   -0.093532072    0.231321271
 438   Q   :   -0.060891847    0.271016473   -0.050413023
 439   Q   :    0.030548673   -0.181688924   -0.185570925
 440   Q   :   -0.068407707   -0.312163851    0.039143983
 441   Q   :    0.250266917    0.115291588    0.168490742
 442   Q   :   -0.183988936    0.196798835   -0.204294218
 443   Q   :   -0.221911059    0.002700211    0.175571746
 444   Q   :    0.009696248   -0.034810954   -0.292616931
 445   Q   :    0.199812369    0.032401185    0.111648391
 446   Q   :    0.289865725    0.006225379    0.061075002
 447   Q   :   -0.187299929    0.184559750    0.096570291
 448   Q   :   -0.095154257   -0.187174727   -0.153764151
 449   Q   :    0.226432021    0.127514088   -0.199892427
 450   Q   :    0.095503190   -0.162533432    0.245648919
 451   Q   :   -0.319423166    0.047429673   -0.043532221
 452   Q   :   -0.216379963   -0.048963999    0.172944458
 453   Q   :    0.234461090    0.097921942    0.076789913
 454   Q   :   -0.020649797   -0.052003170   -0.239014082
 455   Q   :   -0.114691299   -0.241201000    0.129449724
 456   Q   :   -0.161020713    0.216825167   -0.134796154
 457   Q   :    0.273233523    0.022263526    0.007923641
 458   Q   :   -0.224727102   -0.162993498    0.091496129
 459   Q   :    0.272170327   -0.127731418    0.010753994
 460   Q   :   -0.036104085    0.285867349   -0.105317268
 461   Q   :   -0.180017572    0.046891143   -0.184549100
 462   Q   :    0.089134676   -0.231520850    0.109546999
 463   Q   :    0.095017171    0.182762610    0.077032463
 464   Q   :    0.109710051   -0.215210069   -0.027967747
 465   Q   :   -0.231905112    0.104493033   -0.136041824
 466   Q   :    0.117533624    0.113865776    0.162429286
 467   Q   :   -0.264417483    0.025654687    0.170512682
 468   Q   :   -0.014115750   -0.044651544   -0.307396355
 469   Q   :    0.282719507    0.021224772    0.133708770
 470   Q   :    0.100386562   -0.259196780   -0.120758397
 471   Q   :   -0.203344877   -0.024035024    0.218324036
 472   Q   :    0.103190074    0.274603387   -0.101781674
 473   Q   :   -0.073717024    0.235133201   -0.115528991
 474   Q   :   -0.151661578   -0.172376621    0.086473294
 475   Q   :    0.220329304   -0.052324067    0.026037134
 476   Q   :    0.091855692   -0.213776481    0.097601860
 477   Q   :   -0.169343973    0.052407300   -0.223516994
 478   Q   :    0.075734565    0.153584765    0.125735840
 479   Q   :   -0.116412363   -0.196052868   -0.146059792
 480   Q   :    0.110744826    0.236615652   -0.085285381
 481   Q   :    0.019048487   -0.048787283    0.229740488
 482   Q   :    0.142615155   -0.198814246    0.117314225
 483   Q   :    0.075427023    0.213969844   -0.115683974
 484   Q   :   -0.223698996   -0.008379883   -0.013318881
 485   Q   :   -0.185661218   -0.162554784    0.188349719
 486   Q   :    0.163269194    0.235958984    0.096485196
 487   Q   :    0.017697021   -0.079227093   -0.280157204
 488   Q   :   -0.035935021   -0.200408060    0.154181816
 489   Q   :   -0.178799094    0.146508652   -0.169918773
 490   Q   :    0.220954048    0.056576094    0.003785746
 491   Q   :   -0.256585197    0.054522520   -0.015411270
 492   Q   :    0.116716737   -0.140523575    0.210106228
 493   Q   :    0.145113532    0.073668544   -0.196084291
 494   Q   :   -0.249204145   -0.034427238   -0.115165455
 495   Q   :    0.216635091   -0.098587572   -0.030253118
 496   Q   :    0.032881095    0.133423050    0.147724071
 497   Q   :    0.060086288   -0.010785211    0.300647763
 498   Q   :   -0.085650644    0.242460286   -0.135901946
 499   Q   :    0.019126071   -0.239605299   -0.169130451
 500   Q   :   -0.074707729    0.110142640    0.232735952
 501   Q   :    0.175991023   -0.191313563   -0.046399798
 502   Q   :   -0.103715643    0.074863588   -0.188768000
 503   Q   :    0.220550844    0.027438178    0.147782577
 504   Q   :   -0.230016211    0.005097922    0.085594054
 505   Q   :    0.012893908   -0.044705463   -0.238691269
 506   Q   :   -0.075028034    0.244986717    0.025908010
 507   Q   :    0.234508727   -0.110803176   -0.140796410
 508   Q   :   -0.151016828   -0.136652507    0.116908037
 509   Q   :   -0.215731349   -0.086359154   -0.189375675
 510   Q   :    0.307602012   -0.044408111   -0.084123094
 511   Q   :   -0.089984040    0.133171131    0.272748787
 512   Q   :    0.116123500   -0.080260633   -0.300661784
 513   Q   :   -0.299367804   -0.074232036    0.028311733
 514   Q   :    0.168558825    0.163780800    0.270450991
 515   Q   :    0.046286512    0.205325017   -0.161640039
 516   Q   :    0.106641214   -0.260340408    0.024171672
 517   Q   :   -0.149221437    0.064744020    0.123581121
 518   Q   :   -0.247518874    0.125388867    0.103082748
 519   Q   :    0.039901179   -0.280111365    0.006870144
 520   Q   :    0.195718707    0.148795896   -0.116543895
 521   Q   :    0.229702398   -0.121395904   -0.070709095
 522   Q   :   -0.190703256   -0.090997890    0.193528302
 523   Q   :   -0.040429861    0.219035043   -0.114207306
 524   Q   :   -0.306288600    0.029905693    0.005680328
 525   Q   :    0.128147251   -0.231427580    0.181702086
 526   Q   :    0.182678265    0.204830708   -0.189251465
 527   Q   :    0.094973291   -0.070644850   -0.251876589
 528   Q   :    0.150318583   -0.072905492    0.244313102
 529   Q   :   -0.244061779    0.144863346    0.005847483
 530   Q   :   -0.248519987    0.070932049    0.001256854
 531   Q   :    0.229066702    0.076763746    0.124841377
 532   Q   :    0.013573460   -0.143778620   -0.137130507
 533   Q   :    0.219282836    0.083579175   -0.171533253
 534   Q   :   -0.032131366    0.143957372    0.230647659
 535   Q   :   -0.177631497   -0.225090865   -0.056018142
 536   Q   :    0.085720346   -0.183472042    0.228687811
 537   Q   :    0.210727113    0.118844950   -0.154952070
 538   Q   :   -0.301196699    0.057765493   -0.078851326
 539   Q   :    0.121846583   -0.173523183    0.180259450
 540   Q   :   -0.140051359   -0.086940558   -0.224130083
 541   Q   :    0.018105816    0.252298788    0.036417737
 542   Q   :    0.240169675   -0.028600271   -0.068112734
 543   Q   :   -0.118216802   -0.024307610    0.221756654
 544   Q   :   -0.122528919    0.036281762   -0.156187043
 545   Q   :   -0.064302784   -0.214358845   -0.172445944
 546   Q   :   -0.058375033    0.263366252   -0.025300817
 547   Q   :    0.111801795   -0.049332415    0.203830402
 548   Q   :   -0.086517548   -0.188556389   -0.202529300
 549   Q   :    0.057241298    0.279281610   -0.016399373
 550   Q   :    0.032738159   -0.098421300    0.208207433
 551   Q   :   -0.021632730    0.288348721   -0.052926115
 552   Q   :   -0.065187042   -0.112317997    0.216116924
 553   Q   :    0.084994638   -0.166093082   -0.168327936
 554   Q   :   -0.145256250   -0.259476508   -0.111043202
 555   Q   :    0.218531491    0.123230354   -0.161660737
 556   Q   :   -0.064367971    0.134029508    0.269410753
 557   Q   :    0.099780378    0.304166569   -0.048487351
 558   Q   :    0.175254506   -0.195004639    0.179844505
 559   Q   :   -0.283221453   -0.108894467   -0.119067150
 560   Q   :    0.187893045    0.079882067    0.199784059
 561   Q   :   -0.270105277   -0.079923168    0.024214297
 562   Q   :    0.069736081    0.003161200   -0.225585100
 563   Q   :    0.250446691   -0.057852348    0.023492284
 564   Q   :   -0.090171131    0.215068647   -0.138820183
 565   Q   :   -0.160763906   -0.152130056    0.134995457
 566   Q   :   -0.035825110   -0.090376870   -0.290739946
 567   Q   :   -0.037022053    0.267892383    0.072049334
 568   Q   :    0.065361094   -0.179627181    0.220352405
 569   Q   :   -0.130640215   -0.249518972    0.022890960
 570   Q   :    0.214060037    0.031354297   -0.165580634
 571   Q   :   -0.071361966    0.212562118    0.152731559
 572   Q   :    0.239459610   -0.128190182    0.083433329
 573   Q   :   -0.276241285   -0.049477505    0.110866772
 574   Q   :    0.026099759    0.181430535   -0.187430263
 575   Q   :   -0.029884263    0.264507724   -0.077823437
 576   Q   :   -0.199024065   -0.175286725    0.017027197
 577   Q   :    0.233388797   -0.089828428    0.070619955
 578   Q   :    0.031954838    0.154361727   -0.220499304
 579   Q   :    0.029116733    0.126181118    0.307912580
 580   Q   :   -0.059384517   -0.278665831   -0.081119791
 581   Q   :   -0.022071169    0.298968835   -0.066253508
 582   Q   :    0.005269900   -0.218683624   -0.229799659
 583   Q   :    0.018445884   -0.081375497    0.295829265
 584   Q   :    0.198304138    0.060323733    0.219525186
 585   Q   :   -0.266566964    0.034150954    0.004711017
 586   Q   :    0.073604559   -0.106648568   -0.213832992
 587   Q   :   -0.151504492   -0.220504581    0.059474481
 588   Q   :    0.212525765   -0.005686449   -0.147852129
 589   Q   :   -0.082402177    0.221730129    0.093763978
 590   Q   :   -0.245613741   -0.095028850    0.011852241
 591   Q   :    0.087369896    0.215854637    0.140722011
 592   Q   :    0.160010888   -0.129020296   -0.147593873
 593   Q   :    0.268626962    0.072163216    0.069165631
 594   Q   :   -0.083305457   -0.214135807   -0.123051870
 595   Q   :   -0.178080607    0.144162155    0.052560904
 596   Q   :   -0.157760252   -0.025696466   -0.234870022
 597   Q   :    0.011672770   -0.192397432    0.209551572
 598   Q   :    0.140638048    0.225015584    0.019236498
 599   Q   :   -0.216135826    0.067011006    0.166511054
 600   Q   :    0.208603474   -0.148032280    0.068554696
 601   Q   :    0.008275211    0.087365313   -0.221204167
 602   Q   :    0.027030699    0.329014618    0.018813442
 603   Q   :    0.133207827   -0.167418942    0.207940311
 604   Q   :   -0.157901499   -0.155976682   -0.234258049
 605   Q   :   -0.125328932   -0.130956190    0.249641905
 606   Q   :    0.151765070    0.246987473    0.001086330
 607   Q   :   -0.034181673   -0.117543828   -0.242757721
 608   Q   :   -0.212255716   -0.155736702   -0.059632538
 609   Q   :    0.080277060    0.251313455   -0.088196632
 610   Q   :    0.134364398   -0.101677097    0.152371027
 611   Q   :    0.080243297    0.251174223   -0.050930904
 612   Q   :    0.126086993   -0.206887324    0.097742257
 613   Q   :   -0.207589409   -0.039502043   -0.047251841
 614   Q   :   -0.167231289   -0.062107673   -0.205099115
 615   Q   :   -0.037629874    0.078558140    0.234549809
 616   Q   :    0.210152472   -0.003275228   -0.038830633
 617   Q   :    0.083196043    0.284508534   -0.093614574
 618   Q   :   -0.261550254   -0.103275375   -0.053374770
 619   Q   :    0.176829823   -0.178392585    0.140739617
 620   Q   :    0.090044834   -0.170854107   -0.194544323
 621   Q   :   -0.066373026   -0.045079505    0.276065987
 622   Q   :   -0.024974450    0.212903163   -0.074198650
 623   Q   :   -0.148596336   -0.075591762   -0.209008979
 624   Q   :    0.205919549   -0.131235753    0.109977931
 625   Q   :   -0.051927198    0.208190607    0.108169004
 626   Q   :   -0.211421454    0.166362303    0.074128112
 627   Q   :    0.185072541    0.020855760   -0.232887727
 628   Q   :    0.024002728   -0.179044626    0.150563976
 629   Q   :    0.101571374   -0.167414298   -0.192807748
 630   Q   :   -0.281866628   -0.001575442    0.119736483
 631   Q   :    0.175149828    0.162371305    0.067572690
 632   Q   :   -0.218583081    0.086775186   -0.163053377
 633   Q   :    0.205337272   -0.222774633   -0.080814562
 634   Q   :    0.021506937    0.138150458    0.240397258
 635   Q   :   -0.285698432    0.067479544    0.050049601
 636   Q   :    0.079191149   -0.158905970   -0.260702451
 637   Q   :    0.212698477    0.091922035    0.225667050
 638   Q   :   -0.092918463    0.089606971   -0.234075880
 639   Q   :   -0.016635495    0.090602056    0.249788948
 640   Q   :    0.108415900   -0.182796461   -0.011155626
 641   Q   :   -0.032272290    0.278301988    0.047364194
 642   Q   :    0.206402526   -0.156761195    0.142287682
 643   Q   :   -0.158653879   -0.125023665   -0.192466447
 644   Q   :    0.082691984    0.123898953    0.250441237
 645   Q   :    0.185362351   -0.039841828   -0.199143832
 646   Q   :   -0.272167515   -0.093603531   -0.053481510
 647   Q   :   -0.245381446   -0.083896412   -0.061737129
 648   Q   :    0.219495018   -0.096688062   -0.172173694
 649   Q   :    0.035436827    0.182164122    0.230859591
 650   Q   :   -0.103594250    0.115291767    0.250276541
 651   Q   :   -0.086017988    0.045270310   -0.266065974
 652   Q   :    0.187123549   -0.156973433    0.019158997
 653   Q   :    0.129900250    0.158387534   -0.196278323
 654   Q   :   -0.164916202    0.111651957    0.215164411
 655   Q   :    0.033045197   -0.274585169   -0.013889740
 656   Q   :   -0.025078899    0.238679246    0.072667275
 657   Q   :   -0.168489814   -0.216133509   -0.014160096
 658   Q   :    0.197009434   -0.031128589   -0.055144032

Difference to translation invariance:
           :   -0.0004345607    0.0001266800    0.0005431604

Difference to rotation invariance:
           :    0.0147462360   -0.0184509627    0.0094998181

Norm of the cartesian gradient     ...    6.4837130606
RMS gradient                       ...    0.1459318918
MAX gradient                       ...    0.3290146184

-------
TIMINGS
-------

Total SCF gradient time            ...      175.572 sec

One electron gradient       ....      23.276 sec  ( 13.3%)
RI-J Coulomb gradient       ....       9.205 sec  (  5.2%)
COSX gradient               ....     108.045 sec  ( 61.5%)
XC gradient                 ....      14.176 sec  (  8.1%)

Maximum memory used throughout the entire SCFGRAD-calculation: 728.3 MB

                            ***************************************
                            *     ORCA property calculations      *
                            ***************************************

                                    ---------------------
                                    Active property flags
                                    ---------------------
   (+) Dipole Moment


------------------------------------------------------------------------------
                       ORCA ELECTRIC PROPERTIES CALCULATION
------------------------------------------------------------------------------

Dipole Moment Calculation                       ... on
Quadrupole Moment Calculation                   ... off
Polarizability Calculation                      ... off
GBWName                                         ... final062.orca.gbw
Electron density                                ... final062.orca.scfp
The origin for moment calculation is the CENTER OF MASS  = (22.436147, 20.656761 22.165704)

-------------
DIPOLE MOMENT
-------------
                                X             Y             Z
Electronic contribution:      0.36606       1.31076      -1.56228
Nuclear contribution   :     -1.32016     -15.42933      10.88819
                        -----------------------------------------
Total Dipole Moment    :     -0.95410     -14.11856       9.32592
                        -----------------------------------------
Magnitude (a.u.)       :     16.94747
Magnitude (Debye)      :     43.07705



--------------------
Rotational spectrum 
--------------------
 
Rotational constants in cm-1:     0.002325     0.001550     0.001432 
Rotational constants in MHz :    69.697047    46.468048    42.944095 

 Dipole components along the rotational axes: 
x,y,z [a.u.] :     4.992428     4.606188    15.526606 
x,y,z [Debye]:    12.689744    11.707998    39.465497 

 

Timings for individual modules:

Sum of individual times         ...      784.549 sec (=  13.076 min)
GTO integral calculation        ...       12.716 sec (=   0.212 min)   1.6 %
SCF iterations                  ...      592.283 sec (=   9.871 min)  75.5 %
SCF Gradient evaluation         ...      179.550 sec (=   2.993 min)  22.9 %
                             ****ORCA TERMINATED NORMALLY****
TOTAL RUN TIME: 0 days 0 hours 13 minutes 12 seconds 789 msec
