
                                 *****************
                                 * O   R   C   A *
                                 *****************

                                            #,                                       
                                            ###                                      
                                            ####                                     
                                            #####                                    
                                            ######                                   
                                           ########,                                 
                                     ,,################,,,,,                         
                               ,,#################################,,                 
                          ,,##########################################,,             
                       ,#########################################, ''#####,          
                    ,#############################################,,   '####,        
                  ,##################################################,,,,####,       
                ,###########''''           ''''###############################       
              ,#####''   ,,,,##########,,,,          '''####'''          '####       
            ,##' ,,,,###########################,,,                        '##       
           ' ,,###''''                  '''############,,,                           
         ,,##''                                '''############,,,,        ,,,,,,###''
      ,#''                                            '''#######################'''  
     '                                                          ''''####''''         
             ,#######,   #######,   ,#######,      ##                                
            ,#'     '#,  ##    ##  ,#'     '#,    #''#        ######   ,####,        
            ##       ##  ##   ,#'  ##            #'  '#       #        #'  '#        
            ##       ##  #######   ##           ,######,      #####,   #    #        
            '#,     ,#'  ##    ##  '#,     ,#' ,#      #,         ##   #,  ,#        
             '#######'   ##     ##  '#######'  #'      '#     #####' # '####'        



                  #######################################################
                  #                        -***-                        #
                  #          Department of theory and spectroscopy      #
                  #    Directorship and core code : Frank Neese         #
                  #        Max Planck Institute fuer Kohlenforschung    #
                  #                Kaiser Wilhelm Platz 1               #
                  #                 D-45470 Muelheim/Ruhr               #
                  #                      Germany                        #
                  #                                                     #
                  #                  All rights reserved                #
                  #                        -***-                        #
                  #######################################################


                         Program Version 5.0.3 -  RELEASE  -


 With contributions from (in alphabetic order):
   Daniel Aravena         : Magnetic Suceptibility
   Michael Atanasov       : Ab Initio Ligand Field Theory (pilot matlab implementation)
   Alexander A. Auer      : GIAO ZORA, VPT2 properties, NMR spectrum
   Ute Becker             : Parallelization
   Giovanni Bistoni       : ED, misc. LED, open-shell LED, HFLD
   Martin Brehm           : Molecular dynamics
   Dmytro Bykov           : SCF Hessian
   Vijay G. Chilkuri      : MRCI spin determinant printing, contributions to CSF-ICE
   Dipayan Datta          : RHF DLPNO-CCSD density
   Achintya Kumar Dutta   : EOM-CC, STEOM-CC
   Dmitry Ganyushin       : Spin-Orbit,Spin-Spin,Magnetic field MRCI
   Miquel Garcia          : C-PCM and meta-GGA Hessian, CC/C-PCM, Gaussian charge scheme
   Yang Guo               : DLPNO-NEVPT2, F12-NEVPT2, CIM, IAO-localization
   Andreas Hansen         : Spin unrestricted coupled pair/coupled cluster methods
   Benjamin Helmich-Paris : MC-RPA, TRAH-SCF, COSX integrals
   Lee Huntington         : MR-EOM, pCC
   Robert Izsak           : Overlap fitted RIJCOSX, COSX-SCS-MP3, EOM
   Marcus Kettner         : VPT2
   Christian Kollmar      : KDIIS, OOCD, Brueckner-CCSD(T), CCSD density, CASPT2, CASPT2-K
   Simone Kossmann        : Meta GGA functionals, TD-DFT gradient, OOMP2, MP2 Hessian
   Martin Krupicka        : Initial AUTO-CI
   Lucas Lang             : DCDCAS
   Marvin Lechner         : AUTO-CI (C++ implementation), FIC-MRCC
   Dagmar Lenk            : GEPOL surface, SMD
   Dimitrios Liakos       : Extrapolation schemes; Compound Job, initial MDCI parallelization
   Dimitrios Manganas     : Further ROCIS development; embedding schemes
   Dimitrios Pantazis     : SARC Basis sets
   Anastasios Papadopoulos: AUTO-CI, single reference methods and gradients
   Taras Petrenko         : DFT Hessian,TD-DFT gradient, ASA, ECA, R-Raman, ABS, FL, XAS/XES, NRVS
   Peter Pinski           : DLPNO-MP2, DLPNO-MP2 Gradient
   Christoph Reimann      : Effective Core Potentials
   Marius Retegan         : Local ZFS, SOC
   Christoph Riplinger    : Optimizer, TS searches, QM/MM, DLPNO-CCSD(T), (RO)-DLPNO pert. Triples
   Tobias Risthaus        : Range-separated hybrids, TD-DFT gradient, RPA, STAB
   Michael Roemelt        : Original ROCIS implementation
   Masaaki Saitow         : Open-shell DLPNO-CCSD energy and density
   Barbara Sandhoefer     : DKH picture change effects
   Avijit Sen             : IP-ROCIS
   Kantharuban Sivalingam : CASSCF convergence, NEVPT2, FIC-MRCI
   Bernardo de Souza      : ESD, SOC TD-DFT
   Georgi Stoychev        : AutoAux, RI-MP2 NMR, DLPNO-MP2 response
   Willem Van den Heuvel  : Paramagnetic NMR
   Boris Wezisla          : Elementary symmetry handling
   Frank Wennmohs         : Technical directorship


 We gratefully acknowledge several colleagues who have allowed us to
 interface, adapt or use parts of their codes:
   Stefan Grimme, W. Hujo, H. Kruse, P. Pracht,  : VdW corrections, initial TS optimization,
                  C. Bannwarth, S. Ehlert          DFT functionals, gCP, sTDA/sTD-DF
   Ed Valeev, F. Pavosevic, A. Kumar             : LibInt (2-el integral package), F12 methods
   Garnet Chan, S. Sharma, J. Yang, R. Olivares  : DMRG
   Ulf Ekstrom                                   : XCFun DFT Library
   Mihaly Kallay                                 : mrcc  (arbitrary order and MRCC methods)
   Jiri Pittner, Ondrej Demel                    : Mk-CCSD
   Frank Weinhold                                : gennbo (NPA and NBO analysis)
   Christopher J. Cramer and Donald G. Truhlar   : smd solvation model
   Lars Goerigk                                  : TD-DFT with DH, B97 family of functionals
   V. Asgeirsson, H. Jonsson                     : NEB implementation
   FAccTs GmbH                                   : IRC, NEB, NEB-TS, DLPNO-Multilevel, CI-OPT
                                                   MM, QMMM, 2- and 3-layer-ONIOM, Crystal-QMMM,
                                                   LR-CPCM, SF, NACMEs, symmetry and pop. for TD-DFT,
                                                   nearIR, NL-DFT gradient (VV10), updates on ESD,
                                                   ML-optimized integration grids
   S Lehtola, MJT Oliveira, MAL Marques          : LibXC Library
   Liviu Ungur et al                             : ANISO software


 Your calculation uses the libint2 library for the computation of 2-el integrals
 For citations please refer to: http://libint.valeyev.net

 Your ORCA version has been built with support for libXC version: 5.1.0
 For citations please refer to: https://tddft.org/programs/libxc/

 This ORCA versions uses:
   CBLAS   interface :  Fast vector & matrix operations
   LAPACKE interface :  Fast linear algebra routines
   SCALAPACK package :  Parallel linear algebra routines
   Shared memory     :  Shared parallel matrices
   BLAS/LAPACK       :  OpenBLAS 0.3.15  USE64BITINT DYNAMIC_ARCH NO_AFFINITY SkylakeX SINGLE_THREADED
        Core in use  :  SkylakeX
   Copyright (c) 2011-2014, The OpenBLAS Project


================================================================================

----- Orbital basis set information -----
Your calculation utilizes the basis: def2-SVP
   F. Weigend and R. Ahlrichs, Phys. Chem. Chem. Phys. 7, 3297 (2005).

The basis set includes element-specific modifications.

Your calculation utilizes the basis: aug-cc-pVTZ 
    H, B-Ne : Obtained from the ccRepo (grant-hill.group.shef.ac.uk/ccrepo) Feb. 2017
              R. A. Kendall, T. H. Dunning, Jr., R. J. Harrison, J. Chem. Phys. 96, 6796 (1992)
         He : Obtained from the ccRepo (grant-hill.group.shef.ac.uk/ccrepo) Feb. 2017
              D. E. Woon, T. H. Dunning, Jr., J. Chem. Phys. 100, 2975 (1994)
  Li-Be, Na : Obtained from the ccRepo (grant-hill.group.shef.ac.uk/ccrepo) Feb. 2017
              B. P. Prascher, D. E. Woon, K. A. Peterson, T. H. Dunning, Jr., A. K. Wilson, Theor. Chem. Acc. 128, 69 (2011)
         Mg : Obtained from the Peterson Research Group Website (tyr0.chem.wsu.edu/~kipeters) Feb. 2017
              B. P. Prascher, D. E. Woon, K. A. Peterson, T. H. Dunning, Jr., A. K. Wilson, Theor. Chem. Acc. 128, 69 (2011)
      Al-Ar : Obtained from the ccRepo (grant-hill.group.shef.ac.uk/ccrepo) Feb. 2017
              D. E. Woon, T. H. Dunning, Jr., J. Chem. Phys. 98, 1358 (1993)
      Sc-Zn : Obtained from the ccRepo (grant-hill.group.shef.ac.uk/ccrepo) Feb. 2017
              N. B. Balabanov, K. A. Peterson, J. Chem. Phys. 123, 064107 (2005)
              N. B. Balabanov, K. A. Peterson, J. Chem. Phys. 125, 074110 (2006)
      Ga-Kr : Obtained from the ccRepo (grant-hill.group.shef.ac.uk/ccrepo) Feb. 2017
              A. K. Wilson, D. E. Woon, K. A. Peterson, T. H. Dunning, Jr., J. Chem. Phys. 110, 7667 (1999)
     Ag, Au : Obtained from the Peterson Research Group Website (tyr0.chem.wsu.edu/~kipeters) Feb. 2017
              K. A. Peterson, C. Puzzarini, Theor. Chem. Acc. 114, 283 (2005)

Your calculation utilizes the basis: cc-pVTZ 
       H, B-Ne : Obtained from the ccRepo (grant-hill.group.shef.ac.uk/ccrepo) Feb. 2017
                 T. H. Dunning, Jr., J. Chem. Phys. 90, 1007 (1989)
            He : Obtained from the ccRepo (grant-hill.group.shef.ac.uk/ccrepo) Feb. 2017
                 D. E. Woon, T. H. Dunning, Jr., J. Chem. Phys. 100, 2975 (1994)
  Li-Be, Na-Mg : Obtained from the ccRepo (grant-hill.group.shef.ac.uk/ccrepo) Feb. 2017
                 B. P. Prascher, D. E. Woon, K. A. Peterson, T. H. Dunning, Jr., A. K. Wilson, Theor. Chem. Acc. 128, 69 (2011)
         Al-Ar : Obtained from the ccRepo (grant-hill.group.shef.ac.uk/ccrepo) Feb. 2017
                 D. E. Woon, T. H. Dunning, Jr., J. Chem. Phys. 98, 1358 (1993)
            Ca : Obtained from the Peterson Research Group Website (tyr0.chem.wsu.edu/~kipeters) Feb. 2017
                 J. Koput, K. A. Peterson, J. Phys. Chem. 106, 9595 (2002)
         Sc-Zn : Obtained from the ccRepo (grant-hill.group.shef.ac.uk/ccrepo) Feb. 2017
                 N. B. Balabanov, K. A. Peterson, J. Chem. Phys. 123, 064107 (2005)
                 N. B. Balabanov, K. A. Peterson, J. Chem. Phys. 125, 074110 (2006)
         Ga-Kr : Obtained from the ccRepo (grant-hill.group.shef.ac.uk/ccrepo) Feb. 2017
                 A. K. Wilson, D. E. Woon, K. A. Peterson, T. H. Dunning, Jr., J. Chem. Phys. 110, 7667 (1999)
             Y : Obtained from the ccRepo (grant-hill.group.shef.ac.uk/ccrepo) Feb. 2017
                 K. A. Peterson, D. Figgen, M. Dolg, H. Stoll, J. Chem. Phys. 126, 124101 (2007)
        Ag, Au : Obtained from the Peterson Research Group Website (tyr0.chem.wsu.edu/~kipeters) Feb. 2017
                 K. A. Peterson, C. Puzzarini, Theor. Chem. Acc. 114, 283 (2005)

----- AuxJ basis set information -----
Your calculation utilizes the auxiliary basis: def2/J
   F. Weigend, Phys. Chem. Chem. Phys. 8, 1057 (2006).

================================================================================
                                        WARNINGS
                       Please study these warnings very carefully!
================================================================================

WARNING: The globally-selected AuxJ basis set is optimized for use with ECPs
         Make sure a suitable alternative is explicitly given all heavy elements (Z>36)

INFO   : the flag for use of the SHARK integral package has been found!

================================================================================
                                       INPUT FILE
================================================================================
NAME = final010.orca.inp
|  1> ! NoMOPrint PrintBasis #MINIPRINT SMALLPRINT LARGEPRINT
|  2> ! ALLPOP XYZFILE
|  3> #! BP86 3-21G   TightSCF
|  4> ! ENGRAD
|  5> ! B3LYP NormalPNO PModel #DecontractAux
|  6> #! VerySlowConv 
|  7>  %maxcore 5000
|  8>  %scf  maxiter   500  end 
|  9> 
| 10> %pal
| 11>     nprocs 32
| 12> end
| 13> 
| 14> %basis
| 15>     NewGTO O    # New basis for oxygen
| 16>         "aug-cc-pVTZ"
| 17>     end
| 18>     NewGTO C    # New basis for carbon
| 19>         "aug-cc-pVTZ"
| 20>     end
| 21>     NewGTO H    # New basis for hydrogen
| 22>         "cc-pVTZ"
| 23>     end
| 24> end
| 25> 
| 26> * xyz 0   1
| 27>   C  10.41  9.22  9.68  #1
| 28>   H  10.36  8.11  9.68  #2
| 29>   H  11.22  9.61  9.06  #3
| 30>   C  10.72  9.53  11.16  #4
| 31>   H  10.2  8.74  11.72  #5
| 32>   H  11.75  9.29  11.3  #6
| 33>   C  10.35  10.93  11.59  #7
| 34>   H  10.23  10.81  12.68  #8
| 35>   H  9.38  11.41  11.25  #9
| 36>   C  11.58  11.94  11.28  #10
| 37>   H  11.9  11.87  10.23  #11
| 38>   H  12.53  11.7  11.8  #12
| 39>   O  11.14  13.32  11.47  #13
| 40>   H  10.65  13.53  10.62  #14
| 41>   O  9.11  9.62  9.24  #15
| 42>   H  9.16  10.51  8.96  #16
| 43>   O  13.18  6.85  13.52  #17
| 44>   H  12.98  7.8  13.58  #18
| 45>   H  12.91  6.56  12.63  #19
| 46>   O  11.21  14.95  13.75  #20
| 47>   H  11.98  14.59  14.2  #21
| 48>   H  11.08  14.4  12.92  #22
| 49>   O  9.59  9.05  14.63  #23
| 50>   H  10.14  8.28  14.57  #24
| 51>   H  9.25  8.95  15.53  #25
| 52>   O  11.77  16.01  8.61  #26
| 53>   H  11.84  16.98  8.71  #27
| 54>   H  11.94  15.74  9.58  #28
| 55>   O  7.49  10.96  14.08  #29
| 56>   H  6.59  10.96  13.61  #30
| 57>   H  8.03  10.2  13.84  #31
| 58>   O  8.04  14.93  10.78  #32
| 59>   H  8.41  15.75  11.16  #33
| 60>   H  7.1  15.01  10.94  #34
| 61>   O  13.94  3.68  14.37  #35
| 62>   H  14.2  4.66  14.43  #36
| 63>   H  12.96  3.66  14.42  #37
| 64>   O  15.52  6.11  14.81  #38
| 65>   H  16.28  6.04  14.22  #39
| 66>   H  14.93  6.73  14.29  #40
| 67>   O  14.59  16.03  7.31  #41
| 68>   H  13.64  15.9  7.58  #42
| 69>   H  14.97  15.19  7.06  #43
| 70>   O  6.67  9.42  8.28  #44
| 71>   H  7.56  9.67  8.6  #45
| 72>   H  6.19  10.18  7.94  #46
| 73>   O  7.48  13.52  12.99  #47
| 74>   H  7.79  12.63  13.26  #48
| 75>   H  8.01  13.86  12.24  #49
| 76>   O  7.49  8.4  17.03  #50
| 77>   H  7.4  8.31  17.96  #51
| 78>   H  6.65  8.04  16.72  #52
| 79>   O  7.32  11.01  16.82  #53
| 80>   H  7.44  10.02  16.82  #54
| 81>   H  7.7  11.23  15.99  #55
| 82>   O  13.2  9.69  14.19  #56
| 83>   H  12.62  10.27  14.75  #57
| 84>   H  13.99  10.21  13.98  #58
| 85>   O  10.53  13.59  8.71  #59
| 86>   H  10.14  14.4  8.35  #60
| 87>   H  11.23  13.43  8.06  #61
| 88>   O  9.03  11.29  5.88  #62
| 89>   H  8.75  11.13  6.79  #63
| 90>   H  8.88  10.44  5.34  #64
| 91>   O  8  6.69  10.88  #65
| 92>   H  7.56  7.17  11.55  #66
| 93>   H  8.36  7.33  10.25  #67
| 94>   O  4.88  11.32  12.89  #68
| 95>   H  4.49  10.52  13.15  #69
| 96>   H  4.62  11.96  13.6  #70
| 97>   O  11.78  18.77  8.45  #71
| 98>   H  11.27  19.48  8.07  #72
| 99>   H  12.27  19.07  9.24  #73
|100>   O  12.4  13.39  15.73  #74
|101>   H  13.22  13.42  15.32  #75
|102>   H  12.53  13.98  16.46  #76
|103>   O  8.32  12.08  8.43  #77
|104>   H  8.93  12.79  8.64  #78
|105>   H  7.54  12.45  8.06  #79
|106>   O  12.62  6.13  10.76  #80
|107>   H  11.71  5.86  11.05  #81
|108>   H  12.96  5.34  10.38  #82
|109>   O  12.15  16.65  11.45  #83
|110>   H  11.25  16.76  11.74  #84
|111>   H  12.58  15.87  11.89  #85
|112>   O  9.61  16.84  12.63  #86
|113>   H  9.99  16.25  13.3  #87
|114>   H  9.03  17.46  13.06  #88
|115>   O  9.48  18.77  10.46  #89
|116>   H  9.63  19.72  10.56  #90
|117>   H  10.13  18.6  9.77  #91
|118>   O  11.13  10.74  16.12  #92
|119>   H  11.57  11.61  16.08  #93
|120>   H  10.59  10.69  15.34  #94
|121>   O  9.46  14.84  16.39  #95
|122>   H  9.95  14.64  15.57  #96
|123>   H  9.6  15.82  16.54  #97
|124>   O  10.42  6.31  14.74  #98
|125>   H  11.35  6.01  15  #99
|126>   H  9.84  6.1  15.48  #100
|127>   O  7.29  7.74  13.46  #101
|128>   H  8.24  7.88  13.64  #102
|129>   H  6.97  7.13  14.1  #103
|130>   Q  0.6645  13.24$  6.27$  16.99$
|131>   Q  0.6645  12.32$  5.48$  17.89$
|132>   Q  -1.3290  12.66$  5.68$  17.14$
|133>   Q  0.6645  12.14$  3.47$  2.57$
|134>   Q  0.6645  12.59$  3.77$  1.06$
|135>   Q  -1.3290  12.16$  3.86$  1.79$
|136>   Q  0.6645  6.95$  17.59$  13.22$
|137>   Q  0.6645  7.31$  18.41$  14.56$
|138>   Q  -1.3290  7.27$  18.24$  13.72$
|139>   Q  0.6645  12.32$  12.91$  21.58$
|140>   Q  0.6645  13.37$  12.39$  20.69$
|141>   Q  -1.3290  12.77$  12.3$  21.26$
|142>   Q  0.6645  4.54$  12.98$  9.38$
|143>   Q  0.6645  3.66$  13.77$  8.43$
|144>   Q  -1.3290  4.26$  13.67$  9$
|145>   Q  0.6645  3.19$  4.89$  8.73$
|146>   Q  0.6645  2.25$  3.79$  8.06$
|147>   Q  -1.3290  2.55$  4.31$  8.68$
|148>   Q  0.6645  7.02$  2.82$  17.14$
|149>   Q  0.6645  8.17$  3.02$  18.06$
|150>   Q  -1.3290  7.62$  2.56$  17.63$
|151>   Q  0.6645  14.22$  20.74$  7.2$
|152>   Q  0.6645  13.69$  19.41$  6.59$
|153>   Q  -1.3290  14.29$  19.94$  6.88$
|154>   Q  0.6645  5.13$  1.12$  5.77$
|155>   Q  0.6645  6.75$  0.9$  5.84$
|156>   Q  -1.3290  5.97$  1.32$  5.84$
|157>   Q  0.6645  5.11$  15.9$  12.82$
|158>   Q  0.6645  6.48$  15.21$  13.03$
|159>   Q  -1.3290  5.95$  15.87$  12.94$
|160>   Q  0.6645  7.17$  7.56$  20.49$
|161>   Q  0.6645  6.53$  6.64$  19.46$
|162>   Q  -1.3290  7.06$  7.25$  19.71$
|163>   Q  0.6645  10.27$  7.81$  4.52$
|164>   Q  0.6645  11.29$  7.08$  5.41$
|165>   Q  -1.3290  10.91$  7.26$  4.69$
|166>   Q  0.6645  6.82$  7.61$  7.25$
|167>   Q  0.6645  7.96$  6.56$  7.03$
|168>   Q  -1.3290  7.25$  7.01$  6.83$
|169>   Q  0.6645  6.52$  14.05$  2.29$
|170>   Q  0.6645  6.89$  13.04$  3.43$
|171>   Q  -1.3290  6.98$  13.76$  2.95$
|172>   Q  0.6645  7.85$  18.33$  10.24$
|173>   Q  0.6645  6.41$  18.67$  10.82$
|174>   Q  -1.3290  6.97$  18.34$  10.27$
|175>   Q  0.6645  18.37$  7.33$  4.84$
|176>   Q  0.6645  19.07$  7.11$  3.38$
|177>   Q  -1.3290  19.02$  7.2$  4.26$
|178>   Q  0.6645  18.04$  7.11$  12.79$
|179>   Q  0.6645  18.87$  6.11$  13.62$
|180>   Q  -1.3290  18.18$  6.4$  13.19$
|181>   Q  0.6645  7.95$  14.46$  17.4$
|182>   Q  0.6645  7.22$  13.64$  18.55$
|183>   Q  -1.3290  7.41$  14.35$  18.08$
|184>   Q  0.6645  1.67$  9.33$  10.19$
|185>   Q  0.6645  0.52$  8.7$  11.07$
|186>   Q  -1.3290  1.12$  9.29$  10.85$
|187>   Q  0.6645  9.62$  4.6$  19.53$
|188>   Q  0.6645  8.36$  5.54$  19.57$
|189>   Q  -1.3290  8.79$  4.8$  19.43$
|190>   Q  0.6645  17.6$  4.98$  11.74$
|191>   Q  0.6645  17.1$  4.46$  10.45$
|192>   Q  -1.3290  17.32$  4.39$  11.24$
|193>   Q  0.6645  4.43$  15.7$  9.44$
|194>   Q  0.6645  5.34$  16.89$  9.75$
|195>   Q  -1.3290  4.61$  16.51$  9.58$
|196>   Q  0.6645  6.89$  12.69$  0.58$
|197>   Q  0.6645  7.6$  11.96$  -0.72$
|198>   Q  -1.3290  7.18$  12.05$  0.09$
|199>   Q  0.6645  16.81$  13.86$  6.25$
|200>   Q  0.6645  17.27$  15.02$  7.2$
|201>   Q  -1.3290  16.8$  14.34$  6.96$
|202>   Q  0.6645  15.24$  10.04$  11.92$
|203>   Q  0.6645  15.32$  9.18$  10.57$
|204>   Q  -1.3290  15.62$  9.68$  11.2$
|205>   Q  0.6645  16.08$  7.1$  9$
|206>   Q  0.6645  16.87$  5.75$  8.74$
|207>   Q  -1.3290  16.73$  6.59$  8.95$
|208>   Q  0.6645  6.53$  18.06$  6.93$
|209>   Q  0.6645  7.8$  17.52$  7.52$
|210>   Q  -1.3290  7.35$  17.98$  6.99$
|211>   Q  0.6645  6.03$  2.25$  7.5$
|212>   Q  0.6645  6.25$  1.45$  8.71$
|213>   Q  -1.3290  6.13$  2.15$  8.31$
|214>   Q  0.6645  15.78$  0.86$  8.78$
|215>   Q  0.6645  14.32$  1.27$  8.86$
|216>   Q  -1.3290  14.98$  0.87$  8.51$
|217>   Q  0.6645  14.99$  2.83$  12.97$
|218>   Q  0.6645  16.02$  2.79$  11.84$
|219>   Q  -1.3290  15.32$  2.54$  12.24$
|220>   Q  0.6645  11.9$  4.15$  5.27$
|221>   Q  0.6645  11.43$  5.04$  4.12$
|222>   Q  -1.3290  11.56$  4.29$  4.52$
|223>   Q  0.6645  19.41$  17.03$  11.57$
|224>   Q  0.6645  18.78$  17.84$  10.35$
|225>   Q  -1.3290  18.82$  17.47$  11.13$
|226>   Q  0.6645  19.02$  7.16$  9.37$
|227>   Q  0.6645  20.4$  7.15$  10.05$
|228>   Q  -1.3290  19.87$  7.21$  9.39$
|229>   Q  0.6645  12.47$  18.39$  14.12$
|230>   Q  0.6645  11.35$  17.97$  13.35$
|231>   Q  -1.3290  11.69$  18.44$  13.92$
|232>   Q  0.6645  9.01$  4.76$  7$
|233>   Q  0.6645  10.04$  5.53$  7.84$
|234>   Q  -1.3290  9.27$  5.26$  7.62$
|235>   Q  0.6645  1.88$  7.35$  8.62$
|236>   Q  0.6645  1.81$  6.86$  10.09$
|237>   Q  -1.3290  2.16$  7.26$  9.43$
|238>   Q  0.6645  10.2$  1.8$  10.79$
|239>   Q  0.6645  9.93$  3.18$  10.54$
|240>   Q  -1.3290  10.42$  2.57$  10.74$
|241>   Q  0.6645  19.32$  13.17$  13.58$
|242>   Q  0.6645  19.76$  14.06$  12.42$
|243>   Q  -1.3290  19.48$  13.34$  12.77$
|244>   Q  0.6645  15.8$  19.32$  15.95$
|245>   Q  0.6645  14.78$  19.12$  14.8$
|246>   Q  -1.3290  15.05$  19.26$  15.57$
|247>   Q  0.6645  6.61$  4.42$  3.38$
|248>   Q  0.6645  6.51$  2.89$  3.68$
|249>   Q  -1.3290  6.89$  3.65$  3.55$
|250>   Q  0.6645  5.81$  9.14$  2.81$
|251>   Q  0.6645  5.79$  8.86$  4.38$
|252>   Q  -1.3290  6.03$  9.24$  3.66$
|253>   Q  0.6645  12.75$  16.5$  19.42$
|254>   Q  0.6645  13.04$  17.41$  20.72$
|255>   Q  -1.3290  12.79$  16.74$  20.24$
|256>   Q  0.6645  3.98$  8.52$  11.59$
|257>   Q  0.6645  2.54$  8.85$  11.97$
|258>   Q  -1.3290  3.34$  8.6$  12.13$
|259>   Q  0.6645  4.28$  5.12$  1.94$
|260>   Q  0.6645  4.57$  5.9$  3.18$
|261>   Q  -1.3290  4.1$  5.4$  2.7$
|262>   Q  0.6645  11.22$  15.51$  5.11$
|263>   Q  0.6645  11.61$  14.06$  4.74$
|264>   Q  -1.3290  11.73$  14.83$  5.04$
|265>   Q  0.6645  7.22$  11.78$  5.12$
|266>   Q  0.6645  6.06$  11.11$  4.32$
|267>   Q  -1.3290  6.48$  11.75$  4.71$
|268>   Q  0.6645  14.6$  1.69$  16.95$
|269>   Q  0.6645  14.31$  3.02$  16.3$
|270>   Q  -1.3290  14.71$  2.49$  16.85$
|271>   Q  0.6645  8.15$  8.83$  3.88$
|272>   Q  0.6645  8.3$  8.31$  5.46$
|273>   Q  -1.3290  8.49$  8.73$  4.7$
|274>   Q  0.6645  3.64$  1.12$  7.38$
|275>   Q  0.6645  3.79$  2.59$  7.82$
|276>   Q  -1.3290  3.56$  1.96$  7.3$
|277>   Q  0.6645  11.63$  1.52$  6.62$
|278>   Q  0.6645  10.58$  2.13$  7.52$
|279>   Q  -1.3290  11.33$  2.13$  7.1$
|280>   Q  0.6645  6.74$  6.76$  3.57$
|281>   Q  0.6645  6.4$  6.54$  5.05$
|282>   Q  -1.3290  6.3$  6.41$  4.2$
|283>   Q  0.6645  1.34$  10.52$  16.62$
|284>   Q  0.6645  1.96$  11.18$  15.44$
|285>   Q  -1.3290  1.74$  10.52$  15.85$
|286>   Q  0.6645  5.29$  8.26$  9.06$
|287>   Q  0.6645  3.91$  7.68$  9.59$
|288>   Q  -1.3290  4.76$  7.9$  9.62$
|289>   Q  0.6645  19.07$  9.42$  11.49$
|290>   Q  0.6645  17.52$  9.2$  11.54$
|291>   Q  -1.3290  18.34$  9.01$  11.64$
|292>   Q  0.6645  14.7$  10.58$  6.38$
|293>   Q  0.6645  13.7$  10.39$  5.26$
|294>   Q  -1.3290  13.92$  10.58$  6.04$
|295>   Q  0.6645  1.35$  14.32$  8.59$
|296>   Q  0.6645  1.64$  14.98$  7.22$
|297>   Q  -1.3290  1.67$  14.91$  8.09$
|298>   Q  0.6645  2.94$  3.14$  14.41$
|299>   Q  0.6645  3.16$  4.29$  13.37$
|300>   Q  -1.3290  2.7$  3.73$  13.81$
|301>   Q  0.6645  6.92$  15.13$  4.41$
|302>   Q  0.6645  7.11$  16.41$  5.29$
|303>   Q  -1.3290  6.8$  15.66$  5.08$
|304>   Q  0.6645  9.34$  10.23$  1.64$
|305>   Q  0.6645  7.93$  10.56$  1.44$
|306>   Q  -1.3290  8.57$  10.14$  1.85$
|307>   Q  0.6645  5.73$  13.8$  7.67$
|308>   Q  0.6645  6.34$  14.4$  6.4$
|309>   Q  -1.3290  6.32$  13.92$  7.1$
|310>   Q  0.6645  17.6$  9.94$  17.75$
|311>   Q  0.6645  17.04$  10.09$  19.13$
|312>   Q  -1.3290  17.61$  9.87$  18.57$
|313>   Q  0.6645  6.9$  20.05$  12.52$
|314>   Q  0.6645  6.47$  21.39$  11.85$
|315>   Q  -1.3290  6.6$  20.58$  11.88$
|316>   Q  0.6645  10.42$  11.92$  4.9$
|317>   Q  0.6645  11.64$  11.6$  4.13$
|318>   Q  -1.3290  10.99$  12.06$  4.32$
|319>   Q  0.6645  3.8$  8.18$  4.98$
|320>   Q  0.6645  4.18$  7.66$  6.31$
|321>   Q  -1.3290  4.23$  8.21$  5.71$
|322>   Q  0.6645  16.26$  12.79$  4.4$
|323>   Q  0.6645  17.1$  11.68$  5.27$
|324>   Q  -1.3290  16.95$  12.38$  4.79$
|325>   Q  0.6645  19.55$  12.36$  16.18$
|326>   Q  0.6645  18.93$  11.58$  15.19$
|327>   Q  -1.3290  19.05$  12.27$  15.54$
|328>   Q  0.6645  11.85$  16.16$  17.41$
|329>   Q  0.6645  13.38$  15.72$  17.24$
|330>   Q  -1.3290  12.52$  15.63$  17.43$
|331>   Q  0.6645  14.77$  12.19$  1.43$
|332>   Q  0.6645  15.99$  13.12$  1.45$
|333>   Q  -1.3290  15.17$  12.92$  1.54$
|334>   Q  0.6645  10.92$  7.86$  20.68$
|335>   Q  0.6645  10.64$  7.23$  22.04$
|336>   Q  -1.3290  11.03$  7.72$  21.5$
|337>   Q  0.6645  -0.22$  12.85$  9.05$
|338>   Q  0.6645  0.63$  12.53$  10.27$
|339>   Q  -1.3290  0.48$  12.63$  9.47$
|340>   Q  0.6645  4.85$  2.14$  11.72$
|341>   Q  0.6645  6.26$  2.27$  12.37$
|342>   Q  -1.3290  5.54$  1.85$  12.18$
|343>   Q  0.6645  7.16$  4.11$  11.47$
|344>   Q  0.6645  6.11$  4.65$  12.57$
|345>   Q  -1.3290  6.79$  4.23$  12.25$
|346>   Q  0.6645  17.31$  7.66$  6.89$
|347>   Q  0.6645  16.37$  6.93$  5.9$
|348>   Q  -1.3290  16.93$  7.53$  6.15$
|349>   Q  0.6645  17.63$  18.11$  14.02$
|350>   Q  0.6645  17.74$  18.54$  12.55$
|351>   Q  -1.3290  17.47$  18.62$  13.36$
|352>   Q  0.6645  7.32$  20.77$  8.24$
|353>   Q  0.6645  6.86$  20.45$  9.55$
|354>   Q  -1.3290  6.86$  20.91$  8.88$
|355>   Q  0.6645  13.08$  5.62$  2.83$
|356>   Q  0.6645  12.93$  6.84$  3.68$
|357>   Q  -1.3290  13.37$  6.26$  3.29$
|358>   Q  0.6645  12.36$  3.01$  10.04$
|359>   Q  0.6645  13.78$  2.77$  10.57$
|360>   Q  -1.3290  13.21$  2.93$  9.97$
|361>   Q  0.6645  13.84$  10.95$  2.66$
|362>   Q  0.6645  12.5$  10.36$  2.77$
|363>   Q  -1.3290  13.15$  10.76$  3.06$
|364>   Q  0.6645  1.18$  12.2$  12.82$
|365>   Q  0.6645  1.8$  11.1$  11.95$
|366>   Q  -1.3290  1.53$  11.89$  12.12$
|367>   Q  0.6645  15.33$  11.99$  13.63$
|368>   Q  0.6645  15.96$  10.83$  14.18$
|369>   Q  -1.3290  15.51$  11.19$  13.61$
|370>   Q  0.6645  19.3$  16.69$  14.93$
|371>   Q  0.6645  17.94$  16.33$  15.38$
|372>   Q  -1.3290  18.56$  16.88$  15.19$
|373>   Q  0.6645  11.02$  3.1$  12.62$
|374>   Q  0.6645  10.42$  2.76$  13.96$
|375>   Q  -1.3290  11.03$  2.77$  13.4$
|376>   Q  0.6645  16.5$  9.43$  6.25$
|377>   Q  0.6645  17.16$  10.32$  7.3$
|378>   Q  -1.3290  16.73$  10.14$  6.59$
|379>   Q  0.6645  3.32$  10.46$  8.59$
|380>   Q  0.6645  1.88$  11.18$  8.52$
|381>   Q  -1.3290  2.48$  10.55$  8.34$
|382>   Q  0.6645  15.93$  15.96$  15.73$
|383>   Q  0.6645  16.42$  14.51$  16.05$
|384>   Q  -1.3290  16.43$  15.25$  15.64$
|385>   Q  0.6645  11.08$  10.99$  19.28$
|386>   Q  0.6645  11.33$  10.47$  17.89$
|387>   Q  -1.3290  11.28$  10.43$  18.73$
|388>   Q  0.6645  4.53$  6.43$  12.97$
|389>   Q  0.6645  4.48$  5.5$  11.73$
|390>   Q  -1.3290  4.48$  5.69$  12.58$
|391>   Q  0.6645  6.62$  3.72$  15.63$
|392>   Q  0.6645  5.26$  3.21$  15.63$
|393>   Q  -1.3290  5.86$  3.71$  15.91$
|394>   Q  0.6645  5.1$  5.94$  9.78$
|395>   Q  0.6645  5.53$  4.46$  9.39$
|396>   Q  -1.3290  5.09$  5.09$  9.8$
|397>   Q  0.6645  5.74$  15.35$  18.29$
|398>   Q  0.6645  4.52$  15.65$  17.48$
|399>   Q  -1.3290  4.96$  15.61$  18.2$
|400>   Q  0.6645  20.45$  12.78$  7.13$
|401>   Q  0.6645  19.25$  13.09$  7.9$
|402>   Q  -1.3290  19.99$  13.29$  7.57$
|403>   Q  0.6645  8.32$  3.96$  13.8$
|404>   Q  0.6645  8.19$  2.6$  14.4$
|405>   Q  -1.3290  8.37$  3.41$  14.43$
|406>   Q  0.6645  4.29$  10.16$  17.24$
|407>   Q  0.6645  5.53$  10.9$  16.71$
|408>   Q  -1.3290  4.73$  10.77$  16.86$
|409>   Q  0.6645  16.03$  16.42$  3.72$
|410>   Q  0.6645  16.52$  17.33$  2.63$
|411>   Q  -1.3290  16.38$  17.13$  3.44$
|412>   Q  0.6645  9.64$  3.8$  16.12$
|413>   Q  0.6645  10.92$  4.44$  16.76$
|414>   Q  -1.3290  10.39$  3.81$  16.53$
|415>   Q  0.6645  15.55$  16.82$  17.49$
|416>   Q  0.6645  14.42$  17.63$  16.62$
|417>   Q  -1.3290  14.87$  16.94$  16.91$
|418>   Q  0.6645  9.68$  21.23$  12.06$
|419>   Q  0.6645  8.44$  21.34$  11.11$
|420>   Q  -1.3290  9.29$  21.35$  11.32$
|421>   Q  0.6645  10.81$  8.52$  18.79$
|422>   Q  0.6645  10.22$  7.55$  17.96$
|423>   Q  -1.3290  10.41$  7.79$  18.67$
|424>   Q  0.6645  7.4$  3.32$  9.25$
|425>   Q  0.6645  8.38$  4.57$  9.56$
|426>   Q  -1.3290  8.07$  3.77$  9.65$
|427>   Q  0.6645  2.9$  1.7$  10.34$
|428>   Q  0.6645  3.1$  3.23$  10.37$
|429>   Q  -1.3290  3.27$  2.42$  10.58$
|430>   Q  0.6645  14.72$  13.94$  3.24$
|431>   Q  0.6645  14.18$  14.46$  4.47$
|432>   Q  -1.3290  14.77$  14.3$  3.95$
|433>   Q  0.6645  4.83$  7.17$  15.59$
|434>   Q  0.6645  5.66$  5.81$  15.77$
|435>   Q  -1.3290  5.54$  6.68$  15.75$
|436>   Q  0.6645  15.31$  7.55$  17.92$
|437>   Q  0.6645  15.21$  7.29$  16.29$
|438>   Q  -1.3290  15.08$  7.7$  17.07$
|439>   Q  0.6645  5.51$  8.16$  19.19$
|440>   Q  0.6645  4.79$  9.54$  19.47$
|441>   Q  -1.3290  4.98$  8.8$  19.06$
|442>   Q  0.6645  14.7$  5.76$  4.76$
|443>   Q  0.6645  15.01$  5.13$  6.19$
|444>   Q  -1.3290  15.08$  5.7$  5.54$
|445>   Q  0.6645  13.38$  18.97$  11.63$
|446>   Q  0.6645  13.94$  19.29$  10.32$
|447>   Q  -1.3290  13.39$  19.42$  10.93$
|448>   Q  0.6645  11.98$  4.25$  7.59$
|449>   Q  0.6645  12.57$  5.68$  7.76$
|450>   Q  -1.3290  11.99$  5.1$  7.63$
|451>   Q  0.6645  10.47$  5.35$  13.25$
|452>   Q  0.6645  9.54$  5.69$  12.06$
|453>   Q  -1.3290  10.21$  5.34$  12.44$
|454>   Q  0.6645  15.43$  14.17$  14.31$
|455>   Q  0.6645  14.58$  13.92$  12.94$
|456>   Q  -1.3290  14.8$  13.87$  13.8$
|457>   Q  0.6645  9.42$  0.41$  5.66$
|458>   Q  0.6645  8.86$  1.85$  6.1$
|459>   Q  -1.3290  9.03$  1.02$  6.15$
|460>   Q  0.6645  13.88$  7.53$  9.79$
|461>   Q  0.6645  13.92$  8.06$  8.49$
|462>   Q  -1.3290  14.22$  7.98$  9.22$
|463>   Q  0.6645  12.85$  18.96$  4.23$
|464>   Q  0.6645  11.78$  18.4$  5.13$
|465>   Q  -1.3290  12.5$  18.8$  4.97$
|466>   Q  0.6645  4.34$  10.47$  0.58$
|467>   Q  0.6645  3.48$  9.78$  1.66$
|468>   Q  -1.3290  4.2$  10.09$  1.31$
|469>   Q  0.6645  7.64$  18.61$  4.18$
|470>   Q  0.6645  8.08$  17.42$  3.25$
|471>   Q  -1.3290  8.12$  17.97$  3.9$
|472>   Q  0.6645  10.29$  17.97$  17.12$
|473>   Q  0.6645  10.75$  17.66$  15.68$
|474>   Q  -1.3290  10.32$  17.51$  16.38$
|475>   Q  0.6645  9.56$  15.08$  20.88$
|476>   Q  0.6645  8.61$  15.1$  19.64$
|477>   Q  -1.3290  8.86$  15.3$  20.45$
|478>   Q  0.6645  3.15$  8.14$  14.27$
|479>   Q  0.6645  2.95$  8.74$  15.65$
|480>   Q  -1.3290  3.13$  8.12$  15.1$
|481>   Q  0.6645  5.33$  11.59$  6.07$
|482>   Q  0.6645  4.67$  10.27$  6.28$
|483>   Q  -1.3290  4.93$  11.02$  6.55$
|484>   Q  0.6645  8.2$  7.94$  1.74$
|485>   Q  0.6645  8.52$  6.43$  1.76$
|486>   Q  -1.3290  8.09$  7.12$  1.94$
|487>   Q  0.6645  7.7$  11.53$  18.65$
|488>   Q  0.6645  8.83$  12.49$  19.05$
|489>   Q  -1.3290  8.06$  12.09$  19.14$
|490>   Q  0.6645  13.9$  7.24$  6.29$
|491>   Q  0.6645  13.33$  8.65$  6.55$
|492>   Q  -1.3290  13.46$  7.84$  6.69$
|493>   Q  0.6645  10.77$  13.71$  19.53$
|494>   Q  0.6645  10.63$  13.81$  17.97$
|495>   Q  -1.3290  10.58$  13.45$  18.73$
|496>   Q  0.6645  14.06$  3.71$  8.38$
|497>   Q  0.6645  14.42$  3.01$  7$
|498>   Q  -1.3290  14.38$  3.62$  7.57$
|499>   Q  0.6645  15.23$  18.91$  8.5$
|500>   Q  0.6645  14.79$  17.52$  8.73$
|501>   Q  -1.3290  15.01$  18.28$  8.98$
|502>   Q  0.6645  7.27$  18.56$  17.38$
|503>   Q  0.6645  8.29$  17.81$  16.32$
|504>   Q  -1.3290  7.53$  18.08$  16.7$
|505>   Q  0.6645  11.92$  3.97$  19.87$
|506>   Q  0.6645  11.36$  5.26$  20.55$
|507>   Q  -1.3290  11.62$  4.76$  19.9$
|508>   Q  0.6645  10.42$  2.31$  3.74$
|509>   Q  0.6645  9.21$  1.48$  3.73$
|510>   Q  -1.3290  10.02$  1.62$  3.68$
|511>   Q  0.6645  15.97$  12.03$  16.73$
|512>   Q  0.6645  17.48$  12.6$  16.42$
|513>   Q  -1.3290  16.61$  12.61$  16.61$
|514>   Q  0.6645  14.23$  11.3$  18.38$
|515>   Q  0.6645  14.18$  10.31$  17.08$
|516>   Q  -1.3290  14.34$  11.04$  17.55$
|517>   Q  0.6645  4.86$  13.62$  4.88$
|518>   Q  0.6645  4.99$  15.16$  5.02$
|519>   Q  -1.3290  4.56$  14.42$  4.96$
|520>   Q  0.6645  17.26$  14.29$  10.58$
|521>   Q  0.6645  17.6$  15.62$  11.18$
|522>   Q  -1.3290  17.14$  15.11$  10.73$
|523>   Q  0.6645  7.99$  15.03$  7.76$
|524>   Q  0.6645  8.02$  15.8$  8.99$
|525>   Q  -1.3290  8.25$  15.67$  8.24$
|526>   Q  0.6645  9.48$  21.21$  7.39$
|527>   Q  0.6645  8.87$  19.7$  7.25$
|528>   Q  -1.3290  9.45$  20.33$  7.37$
|529>   Q  0.6645  5.53$  10.28$  9.81$
|530>   Q  0.6645  4.98$  10.92$  11.06$
|531>   Q  -1.3290  4.95$  10.66$  10.26$
|532>   Q  0.6645  3.96$  1.1$  14.95$
|533>   Q  0.6645  4.6$  2.06$  13.86$
|534>   Q  -1.3290  4.26$  1.85$  14.65$
|535>   Q  0.6645  3.72$  13.54$  15.57$
|536>   Q  0.6645  4.13$  12.04$  15.6$
|537>   Q  -1.3290  3.89$  12.78$  15.26$
|538>   Q  0.6645  15.94$  10.83$  20.86$
|539>   Q  0.6645  16.04$  11.95$  19.74$
|540>   Q  -1.3290  15.77$  11.22$  20.11$
|541>   Q  0.6645  4.12$  13.78$  18.74$
|542>   Q  0.6645  4.43$  12.47$  18.05$
|543>   Q  -1.3290  4.03$  12.97$  18.61$
|544>   Q  0.6645  2.58$  12.99$  5.45$
|545>   Q  0.6645  2.93$  11.63$  6.15$
|546>   Q  -1.3290  2.47$  12.17$  5.68$
|547>   Q  0.6645  21.1$  10.15$  9.62$
|548>   Q  0.6645  20.61$  8.96$  8.86$
|549>   Q  -1.3290  20.78$  9.74$  8.94$
|550>   Q  0.6645  12.47$  17.25$  3.07$
|551>   Q  0.6645  11.05$  16.72$  2.74$
|552>   Q  -1.3290  11.76$  17.14$  2.6$
|553>   Q  0.6645  2.22$  13.51$  11.45$
|554>   Q  0.6645  2.8$  14.26$  10.25$
|555>   Q  -1.3290  2.59$  14.14$  11.05$
|556>   Q  0.6645  8.09$  3.59$  4.9$
|557>   Q  0.6645  9.52$  3.96$  5.1$
|558>   Q  -1.3290  8.82$  3.59$  5.32$
|559>   Q  0.6645  10.83$  14.57$  1.11$
|560>   Q  0.6645  11.58$  15.26$  0.03$
|561>   Q  -1.3290  11.08$  14.66$  0.32$
|562>   Q  0.6645  14.34$  12.88$  8.45$
|563>   Q  0.6645  15.85$  13.34$  8.51$
|564>   Q  -1.3290  15.11$  12.95$  8.77$
|565>   Q  0.6645  10.05$  13.75$  3.15$
|566>   Q  0.6645  8.84$  14.42$  2.63$
|567>   Q  -1.3290  9.65$  14.37$  2.78$
|568>   Q  0.6645  20.16$  11.87$  11.52$
|569>   Q  0.6645  21.31$  10.79$  11.56$
|570>   Q  -1.3290  20.52$  11.11$  11.43$
|571>   Q  0.6645  2.71$  5.61$  6.6$
|572>   Q  0.6645  3.84$  4.99$  5.78$
|573>   Q  -1.3290  3.53$  5.5$  6.37$
|574>   Q  0.6645  17.39$  9.57$  15.38$
|575>   Q  0.6645  16.21$  9.16$  16.34$
|576>   Q  -1.3290  16.73$  9.72$  15.91$
|577>   Q  0.6645  14.16$  14.33$  10.55$
|578>   Q  0.6645  15.37$  15.03$  11.19$
|579>   Q  -1.3290  14.57$  14.76$  11.13$
|580>   Q  0.6645  15.36$  18.47$  12.84$
|581>   Q  0.6645  14.42$  17.41$  12.23$
|582>   Q  -1.3290  14.63$  18.02$  12.76$
|583>   Q  0.6645  0.25$  13.08$  15.23$
|584>   Q  0.6645  1.55$  13.49$  14.75$
|585>   Q  -1.3290  0.91$  12.99$  14.77$
|586>   Q  0.6645  8.31$  0.22$  13.66$
|587>   Q  0.6645  7$  0.55$  14.41$
|588>   Q  -1.3290  7.68$  0.7$  13.91$
|589>   Q  0.6645  19.24$  10.95$  8.57$
|590>   Q  0.6645  18.15$  11.71$  9.4$
|591>   Q  -1.3290  18.54$  11.4$  8.68$
|592>   Q  0.6645  8.25$  6.65$  16.79$
|593>   Q  0.6645  8.75$  5.38$  17.57$
|594>   Q  -1.3290  8.67$  5.91$  16.91$
|595>   Q  0.6645  11.97$  1.45$  14.37$
|596>   Q  0.6645  12.91$  0.41$  13.9$
|597>   Q  -1.3290  12.38$  0.73$  14.46$
|598>   Q  0.6645  10.33$  19.96$  14.03$
|599>   Q  0.6645  10.68$  21.45$  14.25$
|600>   Q  -1.3290  10.17$  20.81$  14.15$
|601>   Q  0.6645  10.75$  0.53$  17.8$
|602>   Q  0.6645  11.07$  1.99$  17.55$
|603>   Q  -1.3290  11.2$  1.21$  17.86$
|604>   Q  0.6645  16.27$  13.31$  18.23$
|605>   Q  0.6645  15.53$  13.76$  19.54$
|606>   Q  -1.3290  16.23$  13.5$  19.09$
|607>   Q  0.6645  13.94$  21.11$  11.91$
|608>   Q  0.6645  14.24$  22.46$  12.49$
|609>   Q  -1.3290  14.09$  21.64$  12.54$
|610>   Q  0.6645  17.91$  16.33$  8.93$
|611>   Q  0.6645  18.98$  16.84$  7.84$
|612>   Q  -1.3290  18.25$  16.83$  8.31$
|613>   Q  0.6645  17.64$  12.27$  11.47$
|614>   Q  0.6645  16.41$  12.35$  10.52$
|615>   Q  -1.3290  17.23$  12.47$  10.77$
|616>   Q  0.6645  3.09$  16.74$  13.14$
|617>   Q  0.6645  3.1$  15.31$  12.35$
|618>   Q  -1.3290  3.25$  15.88$  12.99$
|619>   Q  0.6645  13.16$  12.26$  6.69$
|620>   Q  0.6645  12.62$  13.74$  6.51$
|621>   Q  -1.3290  12.95$  13.05$  6.95$
|622>   Q  0.6645  16.44$  3.58$  7.93$
|623>   Q  0.6645  17.92$  3.8$  7.78$
|624>   Q  -1.3290  17.16$  3.94$  8.09$
|625>   Q  0.6645  9.99$  16.87$  6.41$
|626>   Q  0.6645  9.58$  17.47$  5.15$
|627>   Q  -1.3290  10.15$  17.19$  5.67$
|628>   Q  0.6645  5.83$  17.1$  16.12$
|629>   Q  0.6645  5.44$  16.28$  14.88$
|630>   Q  -1.3290  5.27$  16.64$  15.62$
|631>   Q  0.6645  3.7$  12.03$  2.43$
|632>   Q  0.6645  3.05$  12.71$  3.67$
|633>   Q  -1.3290  3.42$  12.68$  2.89$
|634>   Q  0.6645  1.91$  15.69$  16.13$
|635>   Q  0.6645  2.82$  15.45$  14.91$
|636>   Q  -1.3290  2.53$  15.3$  15.68$
|637>   Q  0.6645  3$  19.17$  10.7$
|638>   Q  0.6645  3.31$  17.91$  9.9$
|639>   Q  -1.3290  2.85$  18.5$  10.21$
|640>   Q  0.6645  3.57$  18.57$  7.07$
|641>   Q  0.6645  4.26$  17.53$  7.94$
|642>   Q  -1.3290  4.19$  18.07$  7.32$
|643>   Q  0.6645  19.79$  9.52$  14.43$
|644>   Q  0.6645  18.59$  9.53$  13.43$
|645>   Q  -1.3290  19.01$  9.72$  14.15$
|646>   Q  0.6645  11.56$  10.86$  0.78$
|647>   Q  0.6645  11.34$  9.3$  0.81$
|648>   Q  -1.3290  11.3$  10.12$  1.1$
|649> *
|650> 
|651>                          ****END OF INPUT****
================================================================================

                     *******************************
                     * Energy+Gradient Calculation *
                     *******************************

---------------------------------
CARTESIAN COORDINATES (ANGSTROEM)
---------------------------------
  C     10.410000    9.220000    9.680000
  H     10.360000    8.110000    9.680000
  H     11.220000    9.610000    9.060000
  C     10.720000    9.530000   11.160000
  H     10.200000    8.740000   11.720000
  H     11.750000    9.290000   11.300000
  C     10.350000   10.930000   11.590000
  H     10.230000   10.810000   12.680000
  H      9.380000   11.410000   11.250000
  C     11.580000   11.940000   11.280000
  H     11.900000   11.870000   10.230000
  H     12.530000   11.700000   11.800000
  O     11.140000   13.320000   11.470000
  H     10.650000   13.530000   10.620000
  O      9.110000    9.620000    9.240000
  H      9.160000   10.510000    8.960000
  O     13.180000    6.850000   13.520000
  H     12.980000    7.800000   13.580000
  H     12.910000    6.560000   12.630000
  O     11.210000   14.950000   13.750000
  H     11.980000   14.590000   14.200000
  H     11.080000   14.400000   12.920000
  O      9.590000    9.050000   14.630000
  H     10.140000    8.280000   14.570000
  H      9.250000    8.950000   15.530000
  O     11.770000   16.010000    8.610000
  H     11.840000   16.980000    8.710000
  H     11.940000   15.740000    9.580000
  O      7.490000   10.960000   14.080000
  H      6.590000   10.960000   13.610000
  H      8.030000   10.200000   13.840000
  O      8.040000   14.930000   10.780000
  H      8.410000   15.750000   11.160000
  H      7.100000   15.010000   10.940000
  O     13.940000    3.680000   14.370000
  H     14.200000    4.660000   14.430000
  H     12.960000    3.660000   14.420000
  O     15.520000    6.110000   14.810000
  H     16.280000    6.040000   14.220000
  H     14.930000    6.730000   14.290000
  O     14.590000   16.030000    7.310000
  H     13.640000   15.900000    7.580000
  H     14.970000   15.190000    7.060000
  O      6.670000    9.420000    8.280000
  H      7.560000    9.670000    8.600000
  H      6.190000   10.180000    7.940000
  O      7.480000   13.520000   12.990000
  H      7.790000   12.630000   13.260000
  H      8.010000   13.860000   12.240000
  O      7.490000    8.400000   17.030000
  H      7.400000    8.310000   17.960000
  H      6.650000    8.040000   16.720000
  O      7.320000   11.010000   16.820000
  H      7.440000   10.020000   16.820000
  H      7.700000   11.230000   15.990000
  O     13.200000    9.690000   14.190000
  H     12.620000   10.270000   14.750000
  H     13.990000   10.210000   13.980000
  O     10.530000   13.590000    8.710000
  H     10.140000   14.400000    8.350000
  H     11.230000   13.430000    8.060000
  O      9.030000   11.290000    5.880000
  H      8.750000   11.130000    6.790000
  H      8.880000   10.440000    5.340000
  O      8.000000    6.690000   10.880000
  H      7.560000    7.170000   11.550000
  H      8.360000    7.330000   10.250000
  O      4.880000   11.320000   12.890000
  H      4.490000   10.520000   13.150000
  H      4.620000   11.960000   13.600000
  O     11.780000   18.770000    8.450000
  H     11.270000   19.480000    8.070000
  H     12.270000   19.070000    9.240000
  O     12.400000   13.390000   15.730000
  H     13.220000   13.420000   15.320000
  H     12.530000   13.980000   16.460000
  O      8.320000   12.080000    8.430000
  H      8.930000   12.790000    8.640000
  H      7.540000   12.450000    8.060000
  O     12.620000    6.130000   10.760000
  H     11.710000    5.860000   11.050000
  H     12.960000    5.340000   10.380000
  O     12.150000   16.650000   11.450000
  H     11.250000   16.760000   11.740000
  H     12.580000   15.870000   11.890000
  O      9.610000   16.840000   12.630000
  H      9.990000   16.250000   13.300000
  H      9.030000   17.460000   13.060000
  O      9.480000   18.770000   10.460000
  H      9.630000   19.720000   10.560000
  H     10.130000   18.600000    9.770000
  O     11.130000   10.740000   16.120000
  H     11.570000   11.610000   16.080000
  H     10.590000   10.690000   15.340000
  O      9.460000   14.840000   16.390000
  H      9.950000   14.640000   15.570000
  H      9.600000   15.820000   16.540000
  O     10.420000    6.310000   14.740000
  H     11.350000    6.010000   15.000000
  H      9.840000    6.100000   15.480000
  O      7.290000    7.740000   13.460000
  H      8.240000    7.880000   13.640000
  H      6.970000    7.130000   14.100000
  Q     13.240000    6.270000   16.990000
  Q     12.320000    5.480000   17.890000
  Q     12.660000    5.680000   17.140000
  Q     12.140000    3.470000    2.570000
  Q     12.590000    3.770000    1.060000
  Q     12.160000    3.860000    1.790000
  Q      6.950000   17.590000   13.220000
  Q      7.310000   18.410000   14.560000
  Q      7.270000   18.240000   13.720000
  Q     12.320000   12.910000   21.580000
  Q     13.370000   12.390000   20.690000
  Q     12.770000   12.300000   21.260000
  Q      4.540000   12.980000    9.380000
  Q      3.660000   13.770000    8.430000
  Q      4.260000   13.670000    9.000000
  Q      3.190000    4.890000    8.730000
  Q      2.250000    3.790000    8.060000
  Q      2.550000    4.310000    8.680000
  Q      7.020000    2.820000   17.140000
  Q      8.170000    3.020000   18.060000
  Q      7.620000    2.560000   17.630000
  Q     14.220000   20.740000    7.200000
  Q     13.690000   19.410000    6.590000
  Q     14.290000   19.940000    6.880000
  Q      5.130000    1.120000    5.770000
  Q      6.750000    0.900000    5.840000
  Q      5.970000    1.320000    5.840000
  Q      5.110000   15.900000   12.820000
  Q      6.480000   15.210000   13.030000
  Q      5.950000   15.870000   12.940000
  Q      7.170000    7.560000   20.490000
  Q      6.530000    6.640000   19.460000
  Q      7.060000    7.250000   19.710000
  Q     10.270000    7.810000    4.520000
  Q     11.290000    7.080000    5.410000
  Q     10.910000    7.260000    4.690000
  Q      6.820000    7.610000    7.250000
  Q      7.960000    6.560000    7.030000
  Q      7.250000    7.010000    6.830000
  Q      6.520000   14.050000    2.290000
  Q      6.890000   13.040000    3.430000
  Q      6.980000   13.760000    2.950000
  Q      7.850000   18.330000   10.240000
  Q      6.410000   18.670000   10.820000
  Q      6.970000   18.340000   10.270000
  Q     18.370000    7.330000    4.840000
  Q     19.070000    7.110000    3.380000
  Q     19.020000    7.200000    4.260000
  Q     18.040000    7.110000   12.790000
  Q     18.870000    6.110000   13.620000
  Q     18.180000    6.400000   13.190000
  Q      7.950000   14.460000   17.400000
  Q      7.220000   13.640000   18.550000
  Q      7.410000   14.350000   18.080000
  Q      1.670000    9.330000   10.190000
  Q      0.520000    8.700000   11.070000
  Q      1.120000    9.290000   10.850000
  Q      9.620000    4.600000   19.530000
  Q      8.360000    5.540000   19.570000
  Q      8.790000    4.800000   19.430000
  Q     17.600000    4.980000   11.740000
  Q     17.100000    4.460000   10.450000
  Q     17.320000    4.390000   11.240000
  Q      4.430000   15.700000    9.440000
  Q      5.340000   16.890000    9.750000
  Q      4.610000   16.510000    9.580000
  Q      6.890000   12.690000    0.580000
  Q      7.600000   11.960000   -0.720000
  Q      7.180000   12.050000    0.090000
  Q     16.810000   13.860000    6.250000
  Q     17.270000   15.020000    7.200000
  Q     16.800000   14.340000    6.960000
  Q     15.240000   10.040000   11.920000
  Q     15.320000    9.180000   10.570000
  Q     15.620000    9.680000   11.200000
  Q     16.080000    7.100000    9.000000
  Q     16.870000    5.750000    8.740000
  Q     16.730000    6.590000    8.950000
  Q      6.530000   18.060000    6.930000
  Q      7.800000   17.520000    7.520000
  Q      7.350000   17.980000    6.990000
  Q      6.030000    2.250000    7.500000
  Q      6.250000    1.450000    8.710000
  Q      6.130000    2.150000    8.310000
  Q     15.780000    0.860000    8.780000
  Q     14.320000    1.270000    8.860000
  Q     14.980000    0.870000    8.510000
  Q     14.990000    2.830000   12.970000
  Q     16.020000    2.790000   11.840000
  Q     15.320000    2.540000   12.240000
  Q     11.900000    4.150000    5.270000
  Q     11.430000    5.040000    4.120000
  Q     11.560000    4.290000    4.520000
  Q     19.410000   17.030000   11.570000
  Q     18.780000   17.840000   10.350000
  Q     18.820000   17.470000   11.130000
  Q     19.020000    7.160000    9.370000
  Q     20.400000    7.150000   10.050000
  Q     19.870000    7.210000    9.390000
  Q     12.470000   18.390000   14.120000
  Q     11.350000   17.970000   13.350000
  Q     11.690000   18.440000   13.920000
  Q      9.010000    4.760000    7.000000
  Q     10.040000    5.530000    7.840000
  Q      9.270000    5.260000    7.620000
  Q      1.880000    7.350000    8.620000
  Q      1.810000    6.860000   10.090000
  Q      2.160000    7.260000    9.430000
  Q     10.200000    1.800000   10.790000
  Q      9.930000    3.180000   10.540000
  Q     10.420000    2.570000   10.740000
  Q     19.320000   13.170000   13.580000
  Q     19.760000   14.060000   12.420000
  Q     19.480000   13.340000   12.770000
  Q     15.800000   19.320000   15.950000
  Q     14.780000   19.120000   14.800000
  Q     15.050000   19.260000   15.570000
  Q      6.610000    4.420000    3.380000
  Q      6.510000    2.890000    3.680000
  Q      6.890000    3.650000    3.550000
  Q      5.810000    9.140000    2.810000
  Q      5.790000    8.860000    4.380000
  Q      6.030000    9.240000    3.660000
  Q     12.750000   16.500000   19.420000
  Q     13.040000   17.410000   20.720000
  Q     12.790000   16.740000   20.240000
  Q      3.980000    8.520000   11.590000
  Q      2.540000    8.850000   11.970000
  Q      3.340000    8.600000   12.130000
  Q      4.280000    5.120000    1.940000
  Q      4.570000    5.900000    3.180000
  Q      4.100000    5.400000    2.700000
  Q     11.220000   15.510000    5.110000
  Q     11.610000   14.060000    4.740000
  Q     11.730000   14.830000    5.040000
  Q      7.220000   11.780000    5.120000
  Q      6.060000   11.110000    4.320000
  Q      6.480000   11.750000    4.710000
  Q     14.600000    1.690000   16.950000
  Q     14.310000    3.020000   16.300000
  Q     14.710000    2.490000   16.850000
  Q      8.150000    8.830000    3.880000
  Q      8.300000    8.310000    5.460000
  Q      8.490000    8.730000    4.700000
  Q      3.640000    1.120000    7.380000
  Q      3.790000    2.590000    7.820000
  Q      3.560000    1.960000    7.300000
  Q     11.630000    1.520000    6.620000
  Q     10.580000    2.130000    7.520000
  Q     11.330000    2.130000    7.100000
  Q      6.740000    6.760000    3.570000
  Q      6.400000    6.540000    5.050000
  Q      6.300000    6.410000    4.200000
  Q      1.340000   10.520000   16.620000
  Q      1.960000   11.180000   15.440000
  Q      1.740000   10.520000   15.850000
  Q      5.290000    8.260000    9.060000
  Q      3.910000    7.680000    9.590000
  Q      4.760000    7.900000    9.620000
  Q     19.070000    9.420000   11.490000
  Q     17.520000    9.200000   11.540000
  Q     18.340000    9.010000   11.640000
  Q     14.700000   10.580000    6.380000
  Q     13.700000   10.390000    5.260000
  Q     13.920000   10.580000    6.040000
  Q      1.350000   14.320000    8.590000
  Q      1.640000   14.980000    7.220000
  Q      1.670000   14.910000    8.090000
  Q      2.940000    3.140000   14.410000
  Q      3.160000    4.290000   13.370000
  Q      2.700000    3.730000   13.810000
  Q      6.920000   15.130000    4.410000
  Q      7.110000   16.410000    5.290000
  Q      6.800000   15.660000    5.080000
  Q      9.340000   10.230000    1.640000
  Q      7.930000   10.560000    1.440000
  Q      8.570000   10.140000    1.850000
  Q      5.730000   13.800000    7.670000
  Q      6.340000   14.400000    6.400000
  Q      6.320000   13.920000    7.100000
  Q     17.600000    9.940000   17.750000
  Q     17.040000   10.090000   19.130000
  Q     17.610000    9.870000   18.570000
  Q      6.900000   20.050000   12.520000
  Q      6.470000   21.390000   11.850000
  Q      6.600000   20.580000   11.880000
  Q     10.420000   11.920000    4.900000
  Q     11.640000   11.600000    4.130000
  Q     10.990000   12.060000    4.320000
  Q      3.800000    8.180000    4.980000
  Q      4.180000    7.660000    6.310000
  Q      4.230000    8.210000    5.710000
  Q     16.260000   12.790000    4.400000
  Q     17.100000   11.680000    5.270000
  Q     16.950000   12.380000    4.790000
  Q     19.550000   12.360000   16.180000
  Q     18.930000   11.580000   15.190000
  Q     19.050000   12.270000   15.540000
  Q     11.850000   16.160000   17.410000
  Q     13.380000   15.720000   17.240000
  Q     12.520000   15.630000   17.430000
  Q     14.770000   12.190000    1.430000
  Q     15.990000   13.120000    1.450000
  Q     15.170000   12.920000    1.540000
  Q     10.920000    7.860000   20.680000
  Q     10.640000    7.230000   22.040000
  Q     11.030000    7.720000   21.500000
  Q     -0.220000   12.850000    9.050000
  Q      0.630000   12.530000   10.270000
  Q      0.480000   12.630000    9.470000
  Q      4.850000    2.140000   11.720000
  Q      6.260000    2.270000   12.370000
  Q      5.540000    1.850000   12.180000
  Q      7.160000    4.110000   11.470000
  Q      6.110000    4.650000   12.570000
  Q      6.790000    4.230000   12.250000
  Q     17.310000    7.660000    6.890000
  Q     16.370000    6.930000    5.900000
  Q     16.930000    7.530000    6.150000
  Q     17.630000   18.110000   14.020000
  Q     17.740000   18.540000   12.550000
  Q     17.470000   18.620000   13.360000
  Q      7.320000   20.770000    8.240000
  Q      6.860000   20.450000    9.550000
  Q      6.860000   20.910000    8.880000
  Q     13.080000    5.620000    2.830000
  Q     12.930000    6.840000    3.680000
  Q     13.370000    6.260000    3.290000
  Q     12.360000    3.010000   10.040000
  Q     13.780000    2.770000   10.570000
  Q     13.210000    2.930000    9.970000
  Q     13.840000   10.950000    2.660000
  Q     12.500000   10.360000    2.770000
  Q     13.150000   10.760000    3.060000
  Q      1.180000   12.200000   12.820000
  Q      1.800000   11.100000   11.950000
  Q      1.530000   11.890000   12.120000
  Q     15.330000   11.990000   13.630000
  Q     15.960000   10.830000   14.180000
  Q     15.510000   11.190000   13.610000
  Q     19.300000   16.690000   14.930000
  Q     17.940000   16.330000   15.380000
  Q     18.560000   16.880000   15.190000
  Q     11.020000    3.100000   12.620000
  Q     10.420000    2.760000   13.960000
  Q     11.030000    2.770000   13.400000
  Q     16.500000    9.430000    6.250000
  Q     17.160000   10.320000    7.300000
  Q     16.730000   10.140000    6.590000
  Q      3.320000   10.460000    8.590000
  Q      1.880000   11.180000    8.520000
  Q      2.480000   10.550000    8.340000
  Q     15.930000   15.960000   15.730000
  Q     16.420000   14.510000   16.050000
  Q     16.430000   15.250000   15.640000
  Q     11.080000   10.990000   19.280000
  Q     11.330000   10.470000   17.890000
  Q     11.280000   10.430000   18.730000
  Q      4.530000    6.430000   12.970000
  Q      4.480000    5.500000   11.730000
  Q      4.480000    5.690000   12.580000
  Q      6.620000    3.720000   15.630000
  Q      5.260000    3.210000   15.630000
  Q      5.860000    3.710000   15.910000
  Q      5.100000    5.940000    9.780000
  Q      5.530000    4.460000    9.390000
  Q      5.090000    5.090000    9.800000
  Q      5.740000   15.350000   18.290000
  Q      4.520000   15.650000   17.480000
  Q      4.960000   15.610000   18.200000
  Q     20.450000   12.780000    7.130000
  Q     19.250000   13.090000    7.900000
  Q     19.990000   13.290000    7.570000
  Q      8.320000    3.960000   13.800000
  Q      8.190000    2.600000   14.400000
  Q      8.370000    3.410000   14.430000
  Q      4.290000   10.160000   17.240000
  Q      5.530000   10.900000   16.710000
  Q      4.730000   10.770000   16.860000
  Q     16.030000   16.420000    3.720000
  Q     16.520000   17.330000    2.630000
  Q     16.380000   17.130000    3.440000
  Q      9.640000    3.800000   16.120000
  Q     10.920000    4.440000   16.760000
  Q     10.390000    3.810000   16.530000
  Q     15.550000   16.820000   17.490000
  Q     14.420000   17.630000   16.620000
  Q     14.870000   16.940000   16.910000
  Q      9.680000   21.230000   12.060000
  Q      8.440000   21.340000   11.110000
  Q      9.290000   21.350000   11.320000
  Q     10.810000    8.520000   18.790000
  Q     10.220000    7.550000   17.960000
  Q     10.410000    7.790000   18.670000
  Q      7.400000    3.320000    9.250000
  Q      8.380000    4.570000    9.560000
  Q      8.070000    3.770000    9.650000
  Q      2.900000    1.700000   10.340000
  Q      3.100000    3.230000   10.370000
  Q      3.270000    2.420000   10.580000
  Q     14.720000   13.940000    3.240000
  Q     14.180000   14.460000    4.470000
  Q     14.770000   14.300000    3.950000
  Q      4.830000    7.170000   15.590000
  Q      5.660000    5.810000   15.770000
  Q      5.540000    6.680000   15.750000
  Q     15.310000    7.550000   17.920000
  Q     15.210000    7.290000   16.290000
  Q     15.080000    7.700000   17.070000
  Q      5.510000    8.160000   19.190000
  Q      4.790000    9.540000   19.470000
  Q      4.980000    8.800000   19.060000
  Q     14.700000    5.760000    4.760000
  Q     15.010000    5.130000    6.190000
  Q     15.080000    5.700000    5.540000
  Q     13.380000   18.970000   11.630000
  Q     13.940000   19.290000   10.320000
  Q     13.390000   19.420000   10.930000
  Q     11.980000    4.250000    7.590000
  Q     12.570000    5.680000    7.760000
  Q     11.990000    5.100000    7.630000
  Q     10.470000    5.350000   13.250000
  Q      9.540000    5.690000   12.060000
  Q     10.210000    5.340000   12.440000
  Q     15.430000   14.170000   14.310000
  Q     14.580000   13.920000   12.940000
  Q     14.800000   13.870000   13.800000
  Q      9.420000    0.410000    5.660000
  Q      8.860000    1.850000    6.100000
  Q      9.030000    1.020000    6.150000
  Q     13.880000    7.530000    9.790000
  Q     13.920000    8.060000    8.490000
  Q     14.220000    7.980000    9.220000
  Q     12.850000   18.960000    4.230000
  Q     11.780000   18.400000    5.130000
  Q     12.500000   18.800000    4.970000
  Q      4.340000   10.470000    0.580000
  Q      3.480000    9.780000    1.660000
  Q      4.200000   10.090000    1.310000
  Q      7.640000   18.610000    4.180000
  Q      8.080000   17.420000    3.250000
  Q      8.120000   17.970000    3.900000
  Q     10.290000   17.970000   17.120000
  Q     10.750000   17.660000   15.680000
  Q     10.320000   17.510000   16.380000
  Q      9.560000   15.080000   20.880000
  Q      8.610000   15.100000   19.640000
  Q      8.860000   15.300000   20.450000
  Q      3.150000    8.140000   14.270000
  Q      2.950000    8.740000   15.650000
  Q      3.130000    8.120000   15.100000
  Q      5.330000   11.590000    6.070000
  Q      4.670000   10.270000    6.280000
  Q      4.930000   11.020000    6.550000
  Q      8.200000    7.940000    1.740000
  Q      8.520000    6.430000    1.760000
  Q      8.090000    7.120000    1.940000
  Q      7.700000   11.530000   18.650000
  Q      8.830000   12.490000   19.050000
  Q      8.060000   12.090000   19.140000
  Q     13.900000    7.240000    6.290000
  Q     13.330000    8.650000    6.550000
  Q     13.460000    7.840000    6.690000
  Q     10.770000   13.710000   19.530000
  Q     10.630000   13.810000   17.970000
  Q     10.580000   13.450000   18.730000
  Q     14.060000    3.710000    8.380000
  Q     14.420000    3.010000    7.000000
  Q     14.380000    3.620000    7.570000
  Q     15.230000   18.910000    8.500000
  Q     14.790000   17.520000    8.730000
  Q     15.010000   18.280000    8.980000
  Q      7.270000   18.560000   17.380000
  Q      8.290000   17.810000   16.320000
  Q      7.530000   18.080000   16.700000
  Q     11.920000    3.970000   19.870000
  Q     11.360000    5.260000   20.550000
  Q     11.620000    4.760000   19.900000
  Q     10.420000    2.310000    3.740000
  Q      9.210000    1.480000    3.730000
  Q     10.020000    1.620000    3.680000
  Q     15.970000   12.030000   16.730000
  Q     17.480000   12.600000   16.420000
  Q     16.610000   12.610000   16.610000
  Q     14.230000   11.300000   18.380000
  Q     14.180000   10.310000   17.080000
  Q     14.340000   11.040000   17.550000
  Q      4.860000   13.620000    4.880000
  Q      4.990000   15.160000    5.020000
  Q      4.560000   14.420000    4.960000
  Q     17.260000   14.290000   10.580000
  Q     17.600000   15.620000   11.180000
  Q     17.140000   15.110000   10.730000
  Q      7.990000   15.030000    7.760000
  Q      8.020000   15.800000    8.990000
  Q      8.250000   15.670000    8.240000
  Q      9.480000   21.210000    7.390000
  Q      8.870000   19.700000    7.250000
  Q      9.450000   20.330000    7.370000
  Q      5.530000   10.280000    9.810000
  Q      4.980000   10.920000   11.060000
  Q      4.950000   10.660000   10.260000
  Q      3.960000    1.100000   14.950000
  Q      4.600000    2.060000   13.860000
  Q      4.260000    1.850000   14.650000
  Q      3.720000   13.540000   15.570000
  Q      4.130000   12.040000   15.600000
  Q      3.890000   12.780000   15.260000
  Q     15.940000   10.830000   20.860000
  Q     16.040000   11.950000   19.740000
  Q     15.770000   11.220000   20.110000
  Q      4.120000   13.780000   18.740000
  Q      4.430000   12.470000   18.050000
  Q      4.030000   12.970000   18.610000
  Q      2.580000   12.990000    5.450000
  Q      2.930000   11.630000    6.150000
  Q      2.470000   12.170000    5.680000
  Q     21.100000   10.150000    9.620000
  Q     20.610000    8.960000    8.860000
  Q     20.780000    9.740000    8.940000
  Q     12.470000   17.250000    3.070000
  Q     11.050000   16.720000    2.740000
  Q     11.760000   17.140000    2.600000
  Q      2.220000   13.510000   11.450000
  Q      2.800000   14.260000   10.250000
  Q      2.590000   14.140000   11.050000
  Q      8.090000    3.590000    4.900000
  Q      9.520000    3.960000    5.100000
  Q      8.820000    3.590000    5.320000
  Q     10.830000   14.570000    1.110000
  Q     11.580000   15.260000    0.030000
  Q     11.080000   14.660000    0.320000
  Q     14.340000   12.880000    8.450000
  Q     15.850000   13.340000    8.510000
  Q     15.110000   12.950000    8.770000
  Q     10.050000   13.750000    3.150000
  Q      8.840000   14.420000    2.630000
  Q      9.650000   14.370000    2.780000
  Q     20.160000   11.870000   11.520000
  Q     21.310000   10.790000   11.560000
  Q     20.520000   11.110000   11.430000
  Q      2.710000    5.610000    6.600000
  Q      3.840000    4.990000    5.780000
  Q      3.530000    5.500000    6.370000
  Q     17.390000    9.570000   15.380000
  Q     16.210000    9.160000   16.340000
  Q     16.730000    9.720000   15.910000
  Q     14.160000   14.330000   10.550000
  Q     15.370000   15.030000   11.190000
  Q     14.570000   14.760000   11.130000
  Q     15.360000   18.470000   12.840000
  Q     14.420000   17.410000   12.230000
  Q     14.630000   18.020000   12.760000
  Q      0.250000   13.080000   15.230000
  Q      1.550000   13.490000   14.750000
  Q      0.910000   12.990000   14.770000
  Q      8.310000    0.220000   13.660000
  Q      7.000000    0.550000   14.410000
  Q      7.680000    0.700000   13.910000
  Q     19.240000   10.950000    8.570000
  Q     18.150000   11.710000    9.400000
  Q     18.540000   11.400000    8.680000
  Q      8.250000    6.650000   16.790000
  Q      8.750000    5.380000   17.570000
  Q      8.670000    5.910000   16.910000
  Q     11.970000    1.450000   14.370000
  Q     12.910000    0.410000   13.900000
  Q     12.380000    0.730000   14.460000
  Q     10.330000   19.960000   14.030000
  Q     10.680000   21.450000   14.250000
  Q     10.170000   20.810000   14.150000
  Q     10.750000    0.530000   17.800000
  Q     11.070000    1.990000   17.550000
  Q     11.200000    1.210000   17.860000
  Q     16.270000   13.310000   18.230000
  Q     15.530000   13.760000   19.540000
  Q     16.230000   13.500000   19.090000
  Q     13.940000   21.110000   11.910000
  Q     14.240000   22.460000   12.490000
  Q     14.090000   21.640000   12.540000
  Q     17.910000   16.330000    8.930000
  Q     18.980000   16.840000    7.840000
  Q     18.250000   16.830000    8.310000
  Q     17.640000   12.270000   11.470000
  Q     16.410000   12.350000   10.520000
  Q     17.230000   12.470000   10.770000
  Q      3.090000   16.740000   13.140000
  Q      3.100000   15.310000   12.350000
  Q      3.250000   15.880000   12.990000
  Q     13.160000   12.260000    6.690000
  Q     12.620000   13.740000    6.510000
  Q     12.950000   13.050000    6.950000
  Q     16.440000    3.580000    7.930000
  Q     17.920000    3.800000    7.780000
  Q     17.160000    3.940000    8.090000
  Q      9.990000   16.870000    6.410000
  Q      9.580000   17.470000    5.150000
  Q     10.150000   17.190000    5.670000
  Q      5.830000   17.100000   16.120000
  Q      5.440000   16.280000   14.880000
  Q      5.270000   16.640000   15.620000
  Q      3.700000   12.030000    2.430000
  Q      3.050000   12.710000    3.670000
  Q      3.420000   12.680000    2.890000
  Q      1.910000   15.690000   16.130000
  Q      2.820000   15.450000   14.910000
  Q      2.530000   15.300000   15.680000
  Q      3.000000   19.170000   10.700000
  Q      3.310000   17.910000    9.900000
  Q      2.850000   18.500000   10.210000
  Q      3.570000   18.570000    7.070000
  Q      4.260000   17.530000    7.940000
  Q      4.190000   18.070000    7.320000
  Q     19.790000    9.520000   14.430000
  Q     18.590000    9.530000   13.430000
  Q     19.010000    9.720000   14.150000
  Q     11.560000   10.860000    0.780000
  Q     11.340000    9.300000    0.810000
  Q     11.300000   10.120000    1.100000

----------------------------
CARTESIAN COORDINATES (A.U.)
----------------------------
  NO LB      ZA    FRAG     MASS         X           Y           Z
   0 C     6.0000    0    12.011   19.672049   17.423275   18.292549
   1 H     1.0000    0     1.008   19.577563   15.325679   18.292549
   2 H     1.0000    0     1.008   21.202727   18.160268   17.120919
   3 C     6.0000    0    12.011   20.257864   18.009090   21.089344
   4 H     1.0000    0     1.008   19.275207   16.516206   22.147590
   5 H     1.0000    0     1.008   22.204282   17.555556   21.353905
   6 C     6.0000    0    12.011   19.558665   20.654707   21.901926
   7 H     1.0000    0     1.008   19.331898   20.427940   23.961727
   8 H     1.0000    0     1.008   17.725631   21.561775   21.259419
   9 C     6.0000    0    12.011   21.883029   22.563330   21.316111
  10 H     1.0000    0     1.008   22.487741   22.431049   19.331898
  11 H     1.0000    0     1.008   23.678268   22.109796   22.298768
  12 O     8.0000    0    15.999   21.051549   25.171152   21.675159
  13 H     1.0000    0     1.008   20.125583   25.567995   20.068892
  14 O     8.0000    0    15.999   17.215405   18.179165   17.461069
  15 H     1.0000    0     1.008   17.309891   19.861022   16.931946
  16 O     8.0000    0    15.999   24.906590   12.944624   25.549097
  17 H     1.0000    0     1.008   24.528645   14.739864   25.662481
  18 H     1.0000    0     1.008   24.396364   12.396603   23.867241
  19 O     8.0000    0    15.999   21.183830   28.251406   25.983734
  20 H     1.0000    0     1.008   22.638919   27.571104   26.834111
  21 H     1.0000    0     1.008   20.938166   27.212056   24.415262
  22 O     8.0000    0    15.999   18.122474   17.102022   27.646693
  23 H     1.0000    0     1.008   19.161823   15.646932   27.533310
  24 H     1.0000    0     1.008   17.479967   16.913049   29.347447
  25 O     8.0000    0    15.999   22.242077   30.254515   16.270542
  26 H     1.0000    0     1.008   22.374357   32.087550   16.459515
  27 H     1.0000    0     1.008   22.563330   29.744289   18.103576
  28 O     8.0000    0    15.999   14.154049   20.711398   26.607344
  29 H     1.0000    0     1.008   12.453295   20.711398   25.719173
  30 H     1.0000    0     1.008   15.174501   19.275207   26.153810
  31 O     8.0000    0    15.999   15.193398   28.213611   20.371248
  32 H     1.0000    0     1.008   15.892597   29.763187   21.089344
  33 H     1.0000    0     1.008   13.417056   28.364789   20.673604
  34 O     8.0000    0    15.999   26.342782    6.954192   27.155365
  35 H     1.0000    0     1.008   26.834111    8.806124   27.268748
  36 H     1.0000    0     1.008   24.490851    6.916398   27.249851
  37 O     8.0000    0    15.999   29.328550   11.546227   27.986844
  38 H     1.0000    0     1.008   30.764741   11.413946   26.871906
  39 H     1.0000    0     1.008   28.213611   12.717857   27.004186
  40 O     8.0000    0    15.999   27.571104   30.292310   13.813898
  41 H     1.0000    0     1.008   25.775864   30.046646   14.324124
  42 H     1.0000    0     1.008   28.289200   28.704940   13.341467
  43 O     8.0000    0    15.999   12.604473   17.801220   15.646932
  44 H     1.0000    0     1.008   14.286330   18.273652   16.251645
  45 H     1.0000    0     1.008   11.697405   19.237412   15.004426
  46 O     8.0000    0    15.999   14.135151   25.549097   24.547542
  47 H     1.0000    0     1.008   14.720967   23.867241   25.057769
  48 H     1.0000    0     1.008   15.136706   26.191604   23.130248
  49 O     8.0000    0    15.999   14.154049   15.873700   32.182036
  50 H     1.0000    0     1.008   13.983973   15.703624   33.939481
  51 H     1.0000    0     1.008   12.566679   15.193398   31.596221
  52 O     8.0000    0    15.999   13.832795   20.805885   31.785194
  53 H     1.0000    0     1.008   14.059562   18.935056   31.785194
  54 H     1.0000    0     1.008   14.550891   21.221624   30.216721
  55 O     8.0000    0    15.999   24.944385   18.311446   26.815214
  56 H     1.0000    0     1.008   23.848344   19.407487   27.873460
  57 H     1.0000    0     1.008   26.437269   19.294104   26.418371
  58 O     8.0000    0    15.999   19.898816   25.681378   16.459515
  59 H     1.0000    0     1.008   19.161823   27.212056   15.779213
  60 H     1.0000    0     1.008   21.221624   25.379022   15.231193
  61 O     8.0000    0    15.999   17.064227   21.335008   11.111590
  62 H     1.0000    0     1.008   16.535104   21.032652   12.831240
  63 H     1.0000    0     1.008   16.780768   19.728741   10.091138
  64 O     8.0000    0    15.999   15.117809   12.642268   20.560220
  65 H     1.0000    0     1.008   14.286330   13.549336   21.826337
  66 H     1.0000    0     1.008   15.798110   13.851693   19.369693
  67 O     8.0000    0    15.999    9.221864   21.391700   24.358570
  68 H     1.0000    0     1.008    8.484870   19.879919   24.849899
  69 H     1.0000    0     1.008    8.730535   22.601125   25.700275
  70 O     8.0000    0    15.999   22.260974   35.470160   15.968186
  71 H     1.0000    0     1.008   21.297214   36.811865   15.250090
  72 H     1.0000    0     1.008   23.186940   36.037077   17.461069
  73 O     8.0000    0    15.999   23.432604   25.303433   29.725392
  74 H     1.0000    0     1.008   24.982179   25.360125   28.950604
  75 H     1.0000    0     1.008   23.678268   26.418371   31.104892
  76 O     8.0000    0    15.999   15.722521   22.827892   15.930391
  77 H     1.0000    0     1.008   16.875254   24.169597   16.327234
  78 H     1.0000    0     1.008   14.248535   23.527090   15.231193
  79 O     8.0000    0    15.999   23.848344   11.584021   20.333453
  80 H     1.0000    0     1.008   22.128693   11.073795   20.881474
  81 H     1.0000    0     1.008   24.490851   10.091138   19.615357
  82 O     8.0000    0    15.999   22.960173   31.463940   21.637364
  83 H     1.0000    0     1.008   21.259419   31.671810   22.185385
  84 H     1.0000    0     1.008   23.772755   29.989954   22.468844
  85 O     8.0000    0    15.999   18.160268   31.822988   23.867241
  86 H     1.0000    0     1.008   18.878364   30.708050   25.133358
  87 H     1.0000    0     1.008   17.064227   32.994618   24.679823
  88 O     8.0000    0    15.999   17.914604   35.470160   19.766535
  89 H     1.0000    0     1.008   18.198063   37.265399   19.955508
  90 H     1.0000    0     1.008   19.142926   35.148906   18.462624
  91 O     8.0000    0    15.999   21.032652   20.295659   30.462385
  92 H     1.0000    0     1.008   21.864131   21.939720   30.386796
  93 H     1.0000    0     1.008   20.012200   20.201172   28.988399
  94 O     8.0000    0    15.999   17.876809   28.043536   30.972611
  95 H     1.0000    0     1.008   18.802775   27.665591   29.423036
  96 H     1.0000    0     1.008   18.141371   29.895467   31.256070
  97 O     8.0000    0    15.999   19.690946   11.924172   27.854563
  98 H     1.0000    0     1.008   21.448392   11.357254   28.345892
  99 H     1.0000    0     1.008   18.594905   11.527329   29.252961
 100 O     8.0000    0    15.999   13.776104   14.626480   25.435714
 101 H     1.0000    0     1.008   15.571343   14.891042   25.775864
 102 H     1.0000    0     1.008   13.171391   13.473747   26.645138
 103 Q     0.6645    0     0.000   25.019974   11.848583   32.106447
 104 Q     0.6645    0     0.000   23.281426   10.355699   33.807201
 105 Q    -1.3290    0     0.000   23.923933   10.733644   32.389906
 106 Q     0.6645    0     0.000   22.941275    6.557350    4.856596
 107 Q     0.6645    0     0.000   23.791652    7.124268    2.003110
 108 Q    -1.3290    0     0.000   22.979070    7.294343    3.382610
 109 Q     0.6645    0     0.000   13.133597   33.240283   24.982179
 110 Q     0.6645    0     0.000   13.813898   34.789858   27.514413
 111 Q    -1.3290    0     0.000   13.738309   34.468605   25.927043
 112 Q     0.6645    0     0.000   23.281426   24.396364   40.780290
 113 Q     0.6645    0     0.000   25.265638   23.413707   39.098434
 114 Q    -1.3290    0     0.000   24.131803   23.243631   40.175578
 115 Q     0.6645    0     0.000    8.579357   24.528645   17.725631
 116 Q     0.6645    0     0.000    6.916398   26.021529   15.930391
 117 Q    -1.3290    0     0.000    8.050233   25.832556   17.007535
 118 Q     0.6645    0     0.000    6.028226    9.240761   16.497309
 119 Q     0.6645    0     0.000    4.251884    7.162062   15.231193
 120 Q    -1.3290    0     0.000    4.818802    8.144720   16.402823
 121 Q     0.6645    0     0.000   13.265877    5.329028   32.389906
 122 Q     0.6645    0     0.000   15.439063    5.706973   34.128454
 123 Q    -1.3290    0     0.000   14.399713    4.837699   33.315872
 124 Q     0.6645    0     0.000   26.871906   39.192920   13.606028
 125 Q     0.6645    0     0.000   25.870351   36.679584   12.453295
 126 Q    -1.3290    0     0.000   27.004186   37.681139   13.001316
 127 Q     0.6645    0     0.000    9.694295    2.116493   10.903720
 128 Q     0.6645    0     0.000   12.755651    1.700754   11.036001
 129 Q    -1.3290    0     0.000   11.281665    2.494438   11.036001
 130 Q     0.6645    0     0.000    9.656501   30.046646   24.226289
 131 Q     0.6645    0     0.000   12.245425   28.742734   24.623132
 132 Q    -1.3290    0     0.000   11.243870   29.989954   24.453056
 133 Q     0.6645    0     0.000   13.549336   14.286330   38.720488
 134 Q     0.6645    0     0.000   12.339912   12.547782   36.774071
 135 Q    -1.3290    0     0.000   13.341467   13.700514   37.246502
 136 Q     0.6645    0     0.000   19.407487   14.758761    8.541562
 137 Q     0.6645    0     0.000   21.335008   13.379261   10.223418
 138 Q    -1.3290    0     0.000   20.616912   13.719412    8.862816
 139 Q     0.6645    0     0.000   12.887932   14.380816   13.700514
 140 Q     0.6645    0     0.000   15.042220   12.396603   13.284775
 141 Q    -1.3290    0     0.000   13.700514   13.246980   12.906829
 142 Q     0.6645    0     0.000   12.321014   26.550652    4.327473
 143 Q     0.6645    0     0.000   13.020213   24.642029    6.481761
 144 Q    -1.3290    0     0.000   13.190288   26.002632    5.574692
 145 Q     0.6645    0     0.000   14.834350   34.638680   19.350796
 146 Q     0.6645    0     0.000   12.113145   35.281187   20.446837
 147 Q    -1.3290    0     0.000   13.171391   34.657577   19.407487
 148 Q     0.6645    0     0.000   34.714269   13.851693    9.146274
 149 Q     0.6645    0     0.000   36.037077   13.435953    6.387274
 150 Q    -1.3290    0     0.000   35.942591   13.606028    8.050233
 151 Q     0.6645    0     0.000   34.090659   13.435953   24.169597
 152 Q     0.6645    0     0.000   35.659132   11.546227   25.738070
 153 Q    -1.3290    0     0.000   34.355221   12.094247   24.925488
 154 Q     0.6645    0     0.000   15.023323   27.325440   32.881235
 155 Q     0.6645    0     0.000   13.643823   25.775864   35.054420
 156 Q    -1.3290    0     0.000   14.002871   27.117570   34.166249
 157 Q     0.6645    0     0.000    3.155843   17.631145   19.256309
 158 Q     0.6645    0     0.000    0.982658   16.440617   20.919268
 159 Q    -1.3290    0     0.000    2.116493   17.555556   20.503529
 160 Q     0.6645    0     0.000   18.179165    8.692740   36.906351
 161 Q     0.6645    0     0.000   15.798110   10.469083   36.981940
 162 Q    -1.3290    0     0.000   16.610693    9.070685   36.717379
 163 Q     0.6645    0     0.000   33.259180    9.410836   22.185385
 164 Q     0.6645    0     0.000   32.314317    8.428179   19.747638
 165 Q    -1.3290    0     0.000   32.730057    8.295898   21.240522
 166 Q     0.6645    0     0.000    8.371487   29.668700   17.839015
 167 Q     0.6645    0     0.000   10.091138   31.917474   18.424830
 168 Q    -1.3290    0     0.000    8.711637   31.199378   18.103576
 169 Q     0.6645    0     0.000   13.020213   23.980625    1.096041
 170 Q     0.6645    0     0.000   14.361919   22.601125   -1.360603
 171 Q    -1.3290    0     0.000   13.568234   22.771200    0.170075
 172 Q     0.6645    0     0.000   31.766296   26.191604   11.810788
 173 Q     0.6645    0     0.000   32.635570   28.383687   13.606028
 174 Q    -1.3290    0     0.000   31.747399   27.098673   13.152494
 175 Q     0.6645    0     0.000   28.799426   18.972850   22.525536
 176 Q     0.6645    0     0.000   28.950604   17.347686   19.974405
 177 Q    -1.3290    0     0.000   29.517522   18.292549   21.164933
 178 Q     0.6645    0     0.000   30.386796   13.417056   17.007535
 179 Q     0.6645    0     0.000   31.879680   10.865925   16.516206
 180 Q    -1.3290    0     0.000   31.615118   12.453295   16.913049
 181 Q     0.6645    0     0.000   12.339912   34.128454   13.095802
 182 Q     0.6645    0     0.000   14.739864   33.108002   14.210741
 183 Q    -1.3290    0     0.000   13.889487   33.977276   13.209186
 184 Q     0.6645    0     0.000   11.395049    4.251884   14.172946
 185 Q     0.6645    0     0.000   11.810788    2.740103   16.459515
 186 Q    -1.3290    0     0.000   11.584021    4.062911   15.703624
 187 Q     0.6645    0     0.000   29.819878    1.625164   16.591795
 188 Q     0.6645    0     0.000   27.060878    2.399952   16.742974
 189 Q    -1.3290    0     0.000   28.308097    1.644062   16.081569
 190 Q     0.6645    0     0.000   28.326995    5.347925   24.509748
 191 Q     0.6645    0     0.000   30.273413    5.272336   22.374357
 192 Q    -1.3290    0     0.000   28.950604    4.799904   23.130248
 193 Q     0.6645    0     0.000   22.487741    7.842363    9.958857
 194 Q     0.6645    0     0.000   21.599570    9.524220    7.785672
 195 Q    -1.3290    0     0.000   21.845234    8.106925    8.541562
 196 Q     0.6645    0     0.000   36.679584   32.182036   21.864131
 197 Q     0.6645    0     0.000   35.489057   33.712714   19.558665
 198 Q    -1.3290    0     0.000   35.564646   33.013516   21.032652
 199 Q     0.6645    0     0.000   35.942591   13.530439   17.706734
 200 Q     0.6645    0     0.000   38.550413   13.511542   18.991748
 201 Q    -1.3290    0     0.000   37.548858   13.624925   17.744528
 202 Q     0.6645    0     0.000   23.564885   34.752064   26.682933
 203 Q     0.6645    0     0.000   21.448392   33.958379   25.227844
 204 Q    -1.3290    0     0.000   22.090899   34.846550   26.304988
 205 Q     0.6645    0     0.000   17.026432    8.995096   13.228083
 206 Q     0.6645    0     0.000   18.972850   10.450186   14.815453
 207 Q    -1.3290    0     0.000   17.517761    9.939959   14.399713
 208 Q     0.6645    0     0.000    3.552685   13.889487   16.289439
 209 Q     0.6645    0     0.000    3.420404   12.963521   19.067337
 210 Q    -1.3290    0     0.000    4.081808   13.719412   17.820117
 211 Q     0.6645    0     0.000   19.275207    3.401507   20.390145
 212 Q     0.6645    0     0.000   18.764981    6.009329   19.917713
 213 Q    -1.3290    0     0.000   19.690946    4.856596   20.295659
 214 Q     0.6645    0     0.000   36.509509   24.887693   25.662481
 215 Q     0.6645    0     0.000   37.340988   26.569549   23.470399
 216 Q    -1.3290    0     0.000   36.811865   25.208947   24.131803
 217 Q     0.6645    0     0.000   29.857673   36.509509   30.141132
[...]
 332   Q   :   -0.260766425    0.036225243    0.028336966
 333   Q   :    0.181776629   -0.049570116    0.198541712
 334   Q   :    0.072979720    0.012853315   -0.227443595
 335   Q   :    0.259115239    0.065301663   -0.176016179
 336   Q   :   -0.228240789   -0.150136160   -0.115111420
 337   Q   :   -0.017043846    0.089485539    0.284064841
 338   Q   :   -0.118134583    0.095086037    0.231270489
 339   Q   :    0.090414406   -0.260676500   -0.039781430
 340   Q   :    0.033964671    0.148343142   -0.186128148
 341   Q   :   -0.053670544    0.280990793    0.021153021
 342   Q   :    0.169981115   -0.121699323    0.218603996
 343   Q   :   -0.100460126   -0.154112887   -0.246648196
 344   Q   :    0.295952342   -0.099049548   -0.110285319
 345   Q   :   -0.178996580   -0.180566782    0.053860325
 346   Q   :   -0.097967358    0.284434602    0.062209541
 347   Q   :   -0.012213862    0.115923206   -0.248298349
 348   Q   :   -0.224854368   -0.001913805    0.192977997
 349   Q   :    0.236222008   -0.110350359    0.048240129
 350   Q   :   -0.094028458   -0.258902429   -0.114837930
 351   Q   :    0.135340352    0.035653603    0.232119799
 352   Q   :   -0.041757687    0.222183182   -0.110073142
 353   Q   :    0.248577506   -0.019785636    0.077492818
 354   Q   :   -0.160047744    0.185712870    0.056953308
 355   Q   :   -0.086257148   -0.168256412   -0.143716473
 356   Q   :   -0.140767464    0.200820167    0.030514116
 357   Q   :   -0.016926278   -0.232035315    0.140828828
 358   Q   :    0.160595999    0.032391259   -0.175164312
 359   Q   :   -0.082223694    0.229192159    0.206078821
 360   Q   :    0.017184246    0.022327704   -0.275156556
 361   Q   :    0.070745661   -0.238372938    0.079876697
 362   Q   :    0.023874324    0.266599598    0.124645981
 363   Q   :    0.000394855   -0.041533084   -0.252837577
 364   Q   :   -0.030907647   -0.209293023    0.136521951
 365   Q   :    0.284422910   -0.012112697   -0.109325957
 366   Q   :   -0.188759253   -0.174940921   -0.105919430
 367   Q   :   -0.105269111    0.189951115    0.224665957
 368   Q   :    0.004126751    0.270191655   -0.013358472
 369   Q   :    0.142841980   -0.187224766   -0.137286284
 370   Q   :   -0.138293311   -0.097525664    0.146707101
 371   Q   :    0.269095374   -0.094439216    0.018882098
 372   Q   :   -0.141429515   -0.001434781   -0.242969633
 373   Q   :   -0.136608081    0.104397329    0.231717610
 374   Q   :    0.169871490   -0.214262380   -0.169582432
 375   Q   :   -0.251890806   -0.075657220    0.108498916
 376   Q   :    0.086195337    0.297298325    0.057670245
 377   Q   :   -0.013636860    0.178920094   -0.218655790
 378   Q   :   -0.063684215   -0.274157147   -0.019177016
 379   Q   :    0.083388724    0.106435797    0.238213442
 380   Q   :   -0.145292629   -0.213796552    0.129242251
 381   Q   :    0.273344913    0.036585295   -0.053464286
 382   Q   :   -0.139949337    0.161696647   -0.072698195
 383   Q   :   -0.123011749   -0.254499082    0.070875331
 384   Q   :    0.040765566    0.050601771   -0.295487724
 385   Q   :    0.083934788    0.207469795    0.224516029
 386   Q   :   -0.239084575    0.012704182   -0.128073734
 387   Q   :    0.159739729    0.218773785    0.072609034
 388   Q   :    0.077367396   -0.227479770    0.057384007
 389   Q   :    0.189637663   -0.028268645    0.161326625
 390   Q   :   -0.138666073    0.200667264   -0.072682591
 391   Q   :   -0.056622475   -0.165441760   -0.080574705
 392   Q   :    0.120113623   -0.046283642    0.251598018
 393   Q   :   -0.260184831   -0.005596476   -0.051633510
 394   Q   :    0.141453881    0.070278932   -0.201756027
 395   Q   :    0.130168323    0.228134513    0.021416712
 396   Q   :   -0.077944932   -0.088347274   -0.338165651
 397   Q   :   -0.057392340   -0.153689697    0.306800176
 398   Q   :   -0.185165935   -0.104380794   -0.106812264
 399   Q   :    0.091267998    0.254271620   -0.025890488
 400   Q   :    0.097269163   -0.143212796    0.133071690
 401   Q   :   -0.137766192   -0.249005053   -0.098032484
 402   Q   :   -0.062244272    0.253358418   -0.072100440
 403   Q   :    0.190843107   -0.006756183    0.170337291
 404   Q   :   -0.038096347   -0.150630675   -0.275280170
 405   Q   :   -0.246055823    0.048072886    0.193914432
 406   Q   :    0.279318416    0.106378744    0.091426302
 407   Q   :   -0.199337625    0.136382331   -0.048855044
 408   Q   :    0.030931527   -0.249088619   -0.001571787
 409   Q   :    0.170044832    0.107045131    0.047610363
 410   Q   :    0.073142382   -0.051280243    0.243811527
 411   Q   :    0.038734472   -0.109929766   -0.211617137
 412   Q   :   -0.120916464    0.163318400   -0.019556854
 413   Q   :    0.187049894   -0.224887840    0.056059440
 414   Q   :   -0.050987049    0.230954923    0.140504371
 415   Q   :   -0.143417790   -0.011535821   -0.195596226
 416   Q   :   -0.121249316    0.008876493   -0.223094708
 417   Q   :   -0.030829495   -0.175007031    0.190642836
 418   Q   :    0.155248429    0.150659139    0.028778524
 419   Q   :    0.006119312   -0.162565830    0.234330269
 420   Q   :    0.189125678   -0.044727573   -0.200078976
 421   Q   :   -0.209783843    0.211776590   -0.026893155
 422   Q   :    0.009172569   -0.270301980   -0.012299504
 423   Q   :    0.220358895    0.200934726    0.049117278
 424   Q   :   -0.218114909    0.072527091   -0.034000190
 425   Q   :    0.081600730    0.002220200    0.255405114
 426   Q   :   -0.223088307    0.122227439   -0.118799316
 427   Q   :    0.143098399   -0.133647633   -0.130508123
 428   Q   :    0.199740898    0.087121269    0.152558390
 429   Q   :   -0.053183247    0.005058650   -0.234853470
 430   Q   :   -0.149256126   -0.093413776    0.085298652
 431   Q   :    0.117526015   -0.187410951   -0.160363076
 432   Q   :   -0.058334031    0.261636816   -0.020719324
 433   Q   :   -0.057667532   -0.089724430    0.189508777
 434   Q   :   -0.140979649   -0.182183622    0.210770417
 435   Q   :   -0.134395968    0.019606484   -0.278567455
 436   Q   :    0.271745230    0.169455639    0.070665319
 437   Q   :    0.112736900    0.045625037   -0.283292478
 438   Q   :   -0.244392948   -0.134550840    0.029125586
 439   Q   :    0.134810215    0.088881627    0.243015093
 440   Q   :    0.030501472    0.137318497   -0.265312638
 441   Q   :   -0.245051058   -0.095085421    0.104989252
 442   Q   :    0.213988369   -0.042869149    0.155716130
 443   Q   :   -0.176397839    0.214479934    0.082295026
 444   Q   :   -0.027950757   -0.184362410   -0.223314852
 445   Q   :    0.197033679   -0.023323073    0.131386730
 446   Q   :    0.000356832    0.145156598    0.224147478
 447   Q   :    0.153032622    0.057292284   -0.226940210
 448   Q   :   -0.144884419   -0.196392219    0.002980527
 449   Q   :    0.259874262   -0.090400403    0.133020993
 450   Q   :   -0.046688390   -0.067972815   -0.248707697
 451   Q   :   -0.206382254    0.157831570    0.119409101
 452   Q   :    0.010942041    0.018769801   -0.294277382
 453   Q   :   -0.047537819    0.209284382    0.176771697
 454   Q   :    0.030085249   -0.232066785    0.124963915
 455   Q   :    0.118262885    0.174873083   -0.165051485
 456   Q   :   -0.081059420   -0.246696488   -0.109840760
 457   Q   :   -0.047763970    0.081427148    0.278862296
 458   Q   :    0.047517951    0.260231438   -0.075219708
 459   Q   :    0.166712425   -0.243455633   -0.074449267
 460   Q   :   -0.208462650   -0.023739288    0.140738156
 461   Q   :   -0.122034863   -0.203999534   -0.178343604
 462   Q   :    0.227720327    0.114313692   -0.036043569
 463   Q   :   -0.108894577    0.074649825    0.232248636
 464   Q   :    0.142573256   -0.191878098   -0.142569030
 465   Q   :   -0.041941665    0.277496790   -0.060469123
 466   Q   :   -0.110039316   -0.087650207    0.193147394
 467   Q   :    0.064912468    0.098429788    0.263415627
 468   Q   :    0.027954689    0.133211847   -0.249734092
 469   Q   :   -0.080820376   -0.227705873   -0.013245357
 470   Q   :   -0.090080777    0.030140528    0.229714948
 471   Q   :    0.014606645   -0.217598048   -0.204546561
 472   Q   :    0.072762383    0.193150443   -0.030536053
 473   Q   :    0.080573017    0.230008667   -0.173086812
 474   Q   :   -0.084421594   -0.260150036   -0.092356731
 475   Q   :    0.012826088    0.024414650    0.268616361
 476   Q   :   -0.069064279    0.156946347    0.215455796
 477   Q   :    0.218087542   -0.067471842   -0.106964031
 478   Q   :   -0.149814926   -0.084061160   -0.098119665
 479   Q   :    0.096246097   -0.270572080    0.006610485
 480   Q   :   -0.091396607    0.145760974    0.222648692
 481   Q   :   -0.000957975    0.124384036   -0.220919944
 482   Q   :    0.148073489    0.289953890    0.024421148
 483   Q   :   -0.309947408   -0.040448479    0.023269694
 484   Q   :    0.161143326   -0.251370752   -0.052527994
 485   Q   :   -0.180921513   -0.164525049    0.036475893
 486   Q   :    0.237665273   -0.002318731   -0.040887957
 487   Q   :   -0.051249791    0.156657466   -0.001257086
 488   Q   :   -0.039428050    0.082808581    0.253424883
 489   Q   :   -0.050805144   -0.219609397   -0.136941300
 490   Q   :    0.078512241    0.137078898   -0.114366232
 491   Q   :    0.108920270   -0.261623415   -0.020382287
 492   Q   :    0.142962871    0.224853399    0.018227090
 493   Q   :   -0.261458209    0.037659394   -0.001310695
 494   Q   :    0.055071147   -0.256852377   -0.038261232
 495   Q   :    0.187504318    0.169596873    0.178386302
 496   Q   :   -0.232062662    0.096733527   -0.143337371
 497   Q   :   -0.085928161   -0.222878530   -0.148229677
 498   Q   :   -0.108436130    0.045359064    0.299731569
 499   Q   :    0.198952033    0.178890312   -0.147893750
 500   Q   :   -0.005114050    0.271738599    0.004821446
 501   Q   :   -0.195165880   -0.184097515   -0.034457645
 502   Q   :    0.197360208   -0.079607937    0.027320384
 503   Q   :    0.221424038   -0.131969577   -0.157922942
 504   Q   :    0.027959547    0.077783165    0.261888203
 505   Q   :   -0.246626058    0.049760926   -0.104530000
 506   Q   :   -0.095866841   -0.251709024    0.088930949
 507   Q   :    0.089160626    0.056419147   -0.212256068
 508   Q   :    0.002232551    0.182395682    0.130537958
 509   Q   :   -0.054546581    0.253344590    0.115427492
 510   Q   :    0.077309133   -0.234087685    0.102851929
 511   Q   :   -0.024028699   -0.007544789   -0.223490371
 512   Q   :    0.068253647   -0.118242695    0.245854323
 513   Q   :    0.079624210    0.214963497   -0.100034008
 514   Q   :   -0.158740702   -0.113379438   -0.132644734
 515   Q   :    0.041492164    0.291619162    0.035280767
 516   Q   :    0.144367152   -0.149401329   -0.190412386
 517   Q   :   -0.187948011   -0.142145706    0.159631735
 518   Q   :    0.048369689    0.267488698   -0.078876361
 519   Q   :    0.163736299   -0.165633248    0.148049701
 520   Q   :   -0.221678549   -0.109702800   -0.071683359
 521   Q   :    0.113802156    0.115925816    0.235103686
 522   Q   :   -0.055056216   -0.303903906   -0.009445267
 523   Q   :   -0.038909720    0.186677060   -0.225217312
 524   Q   :    0.229784002    0.032792393    0.165034769
 525   Q   :   -0.251014456   -0.154105214    0.063002626
 526   Q   :    0.020479905    0.126637584   -0.229527387
 527   Q   :   -0.130987600   -0.212572154    0.125305547
 528   Q   :    0.062660590    0.029764871   -0.286005077
 529   Q   :    0.060489286    0.185525641    0.143004511
 530   Q   :   -0.224879899    0.002108644   -0.132936524
 531   Q   :    0.246373239    0.145417032   -0.088672092
 532   Q   :   -0.018336939   -0.143396447    0.226300032
 533   Q   :   -0.070945888   -0.018510748    0.277646388
 534   Q   :    0.184526699    0.224663827   -0.091221824
 535   Q   :   -0.106957468   -0.204948027   -0.194163433
 536   Q   :   -0.267912639   -0.022861437   -0.109578159
 537   Q   :    0.214459049    0.114149446   -0.071350600
 538   Q   :    0.054460623   -0.098594526    0.188325723
 539   Q   :    0.132089712   -0.228432818    0.131863530
 540   Q   :   -0.289839856    0.011884818   -0.054708704
 541   Q   :    0.157347241    0.225280905   -0.076332508
 542   Q   :   -0.103932597    0.253530895    0.025606898
 543   Q   :    0.265154967   -0.101155823    0.040263430
 544   Q   :   -0.160265013   -0.147871915   -0.072801482
 545   Q   :   -0.276795116    0.028545991    0.065341441
 546   Q   :    0.088933707   -0.184657958   -0.209245834
 547   Q   :    0.189249291    0.150533640    0.142368390
 548   Q   :    0.203579393   -0.060099583   -0.166789197
 549   Q   :   -0.137315952   -0.168971964    0.116598946
 550   Q   :   -0.070586375    0.232122443    0.050026897
 551   Q   :   -0.146203461   -0.159399711   -0.207199226
 552   Q   :    0.251324496    0.079058500    0.027949527
 553   Q   :   -0.119434889    0.083764213    0.175646771
 554   Q   :    0.225362515    0.134660620    0.017087670
 555   Q   :   -0.063493937   -0.212458004   -0.191847135
 556   Q   :   -0.160667989    0.072409533    0.174465654
 557   Q   :   -0.255990059    0.053072132    0.190047602
 558   Q   :    0.227063128    0.199029749    0.000116454
 559   Q   :    0.020614520   -0.247741054   -0.185650389
 560   Q   :    0.226919303   -0.188848135   -0.083530202
 561   Q   :   -0.217097273   -0.063470629    0.170216694
 562   Q   :   -0.014524616    0.239385312   -0.090583694
 563   Q   :    0.235782203   -0.147253822   -0.027849148
 564   Q   :   -0.096182556    0.081567847    0.212659228
 565   Q   :   -0.138929966    0.062743275   -0.189463388
 566   Q   :   -0.129203711    0.230194226   -0.032084993
 567   Q   :    0.019695315   -0.162328752    0.216667726
 568   Q   :    0.099285742   -0.076028192   -0.181231103
 569   Q   :   -0.132083450    0.249439332   -0.040670884
 570   Q   :    0.189874275   -0.104797908   -0.218767153
 571   Q   :   -0.052974225   -0.151675158    0.269139118
 572   Q   :    0.050165103   -0.249686079   -0.037125216
 573   Q   :    0.203889539    0.236366993    0.034987424
 574   Q   :   -0.263136745    0.018358271    0.009754948
 575   Q   :   -0.190858221   -0.260480136   -0.030003976
 576   Q   :   -0.056809600    0.251187527   -0.101485359
 577   Q   :    0.249911746    0.001496418    0.134198409
 578   Q   :   -0.014945909   -0.046617324   -0.233895210
 579   Q   :   -0.234218872    0.072910091    0.129185184
 580   Q   :    0.251569203   -0.003328918    0.112330175
 581   Q   :   -0.043893657   -0.159206975   -0.230897730
 582   Q   :    0.053378415    0.302373795   -0.039005307
 583   Q   :   -0.004314033   -0.134550683    0.272990847
 584   Q   :   -0.085304361   -0.168415563    0.195190054
 585   Q   :    0.244233986   -0.008764365   -0.140529832
 586   Q   :   -0.158462936    0.182723164   -0.061711083
 587   Q   :    0.136097997   -0.075562022    0.250409964
 588   Q   :   -0.245440080   -0.037445067   -0.057628915
 589   Q   :    0.103283190    0.103397037   -0.176854872
 590   Q   :   -0.049546190    0.256027144    0.041210490
 591   Q   :   -0.039223647   -0.152095793   -0.181013724
 592   Q   :    0.083746626   -0.093902091    0.146306187
 593   Q   :    0.056447274   -0.241085194   -0.089981440
 594   Q   :   -0.100209111    0.184542856   -0.132318089
 595   Q   :    0.044502925    0.058811490    0.221622347
 596   Q   :   -0.252768188   -0.144746949   -0.068856607
 597   Q   :    0.265901340   -0.062627600   -0.120726415
 598   Q   :   -0.002119416    0.191780537    0.181094705
 599   Q   :   -0.078282691   -0.121558784    0.266620182
 600   Q   :   -0.210854855    0.089345246   -0.173569761
 601   Q   :    0.288997972    0.031511236   -0.081549951
 602   Q   :    0.170667411    0.132934351    0.132235773
 603   Q   :    0.073943064   -0.119579213   -0.254552019
 604   Q   :   -0.252307305   -0.013332460    0.121977188
 605   Q   :    0.093188510   -0.238969866   -0.149651594
 606   Q   :   -0.115685489   -0.006287210    0.253915035
 607   Q   :    0.019470876    0.254886015   -0.101561397
 608   Q   :   -0.214050588    0.135605118    0.133709008
 609   Q   :    0.079487122    0.056770431   -0.261869137
 610   Q   :    0.128154538   -0.182341385    0.140792512
 611   Q   :    0.068997666    0.234738939    0.177752369
 612   Q   :    0.188843656   -0.211028041   -0.113574703
 613   Q   :   -0.263665286   -0.015382559   -0.064156716
 614   Q   :   -0.234260602    0.176501355   -0.084261198
 615   Q   :    0.012990129   -0.190727600    0.221618401
 616   Q   :    0.213808559    0.021156619   -0.144284928
 617   Q   :    0.266167163   -0.072357042    0.086917231
 618   Q   :   -0.125839043   -0.064908182   -0.220740508
 619   Q   :   -0.130642041    0.136337534    0.134245804
 620   Q   :    0.098087151    0.241698317   -0.120326732
 621   Q   :    0.019797179   -0.252480136   -0.102207391
 622   Q   :   -0.115047184    0.008972340    0.216418561

Difference to translation invariance:
           :   -0.0003109518   -0.0006087712   -0.0007511104

Difference to rotation invariance:
           :   -0.0001336745    0.0048616113   -0.0017381160

Norm of the cartesian gradient     ...    6.2728635241
RMS gradient                       ...    0.1452145118
MAX gradient                       ...    0.3381656507

-------
TIMINGS
-------

Total SCF gradient time            ...      177.909 sec

One electron gradient       ....      21.896 sec  ( 12.3%)
RI-J Coulomb gradient       ....       9.332 sec  (  5.2%)
COSX gradient               ....     111.065 sec  ( 62.4%)
XC gradient                 ....      13.642 sec  (  7.7%)

Maximum memory used throughout the entire SCFGRAD-calculation: 751.2 MB

                            ***************************************
                            *     ORCA property calculations      *
                            ***************************************

                                    ---------------------
                                    Active property flags
                                    ---------------------
   (+) Dipole Moment


------------------------------------------------------------------------------
                       ORCA ELECTRIC PROPERTIES CALCULATION
------------------------------------------------------------------------------

Dipole Moment Calculation                       ... on
Quadrupole Moment Calculation                   ... off
Polarizability Calculation                      ... off
GBWName                                         ... final010.orca.gbw
Electron density                                ... final010.orca.scfp
The origin for moment calculation is the CENTER OF MASS  = (19.302831, 21.674128 22.884979)

-------------
DIPOLE MOMENT
-------------
                                X             Y             Z
Electronic contribution:     -1.14019       2.58996      -0.84827
Nuclear contribution   :      1.38228      -8.01766     -11.21056
                        -----------------------------------------
Total Dipole Moment    :      0.24209      -5.42770     -12.05882
                        -----------------------------------------
Magnitude (a.u.)       :     13.22625
Magnitude (Debye)      :     33.61846



--------------------
Rotational spectrum 
--------------------
 
Rotational constants in cm-1:     0.002160     0.001252     0.001195 
Rotational constants in MHz :    64.758935    37.543323    35.833525 

 Dipole components along the rotational axes: 
x,y,z [a.u.] :     0.032427   -12.824953     3.233155 
x,y,z [Debye]:     0.082423   -32.598439     8.218026 

 

Timings for individual modules:

Sum of individual times         ...      763.903 sec (=  12.732 min)
GTO integral calculation        ...       12.354 sec (=   0.206 min)   1.6 %
SCF iterations                  ...      569.793 sec (=   9.497 min)  74.6 %
SCF Gradient evaluation         ...      181.755 sec (=   3.029 min)  23.8 %
                             ****ORCA TERMINATED NORMALLY****
TOTAL RUN TIME: 0 days 0 hours 12 minutes 52 seconds 466 msec
