
                                 *****************
                                 * O   R   C   A *
                                 *****************

                                            #,                                       
                                            ###                                      
                                            ####                                     
                                            #####                                    
                                            ######                                   
                                           ########,                                 
                                     ,,################,,,,,                         
                               ,,#################################,,                 
                          ,,##########################################,,             
                       ,#########################################, ''#####,          
                    ,#############################################,,   '####,        
                  ,##################################################,,,,####,       
                ,###########''''           ''''###############################       
              ,#####''   ,,,,##########,,,,          '''####'''          '####       
            ,##' ,,,,###########################,,,                        '##       
           ' ,,###''''                  '''############,,,                           
         ,,##''                                '''############,,,,        ,,,,,,###''
      ,#''                                            '''#######################'''  
     '                                                          ''''####''''         
             ,#######,   #######,   ,#######,      ##                                
            ,#'     '#,  ##    ##  ,#'     '#,    #''#        ######   ,####,        
            ##       ##  ##   ,#'  ##            #'  '#       #        #'  '#        
            ##       ##  #######   ##           ,######,      #####,   #    #        
            '#,     ,#'  ##    ##  '#,     ,#' ,#      #,         ##   #,  ,#        
             '#######'   ##     ##  '#######'  #'      '#     #####' # '####'        



                  #######################################################
                  #                        -***-                        #
                  #          Department of theory and spectroscopy      #
                  #    Directorship and core code : Frank Neese         #
                  #        Max Planck Institute fuer Kohlenforschung    #
                  #                Kaiser Wilhelm Platz 1               #
                  #                 D-45470 Muelheim/Ruhr               #
                  #                      Germany                        #
                  #                                                     #
                  #                  All rights reserved                #
                  #                        -***-                        #
                  #######################################################


                         Program Version 5.0.3 -  RELEASE  -


 With contributions from (in alphabetic order):
   Daniel Aravena         : Magnetic Suceptibility
   Michael Atanasov       : Ab Initio Ligand Field Theory (pilot matlab implementation)
   Alexander A. Auer      : GIAO ZORA, VPT2 properties, NMR spectrum
   Ute Becker             : Parallelization
   Giovanni Bistoni       : ED, misc. LED, open-shell LED, HFLD
   Martin Brehm           : Molecular dynamics
   Dmytro Bykov           : SCF Hessian
   Vijay G. Chilkuri      : MRCI spin determinant printing, contributions to CSF-ICE
   Dipayan Datta          : RHF DLPNO-CCSD density
   Achintya Kumar Dutta   : EOM-CC, STEOM-CC
   Dmitry Ganyushin       : Spin-Orbit,Spin-Spin,Magnetic field MRCI
   Miquel Garcia          : C-PCM and meta-GGA Hessian, CC/C-PCM, Gaussian charge scheme
   Yang Guo               : DLPNO-NEVPT2, F12-NEVPT2, CIM, IAO-localization
   Andreas Hansen         : Spin unrestricted coupled pair/coupled cluster methods
   Benjamin Helmich-Paris : MC-RPA, TRAH-SCF, COSX integrals
   Lee Huntington         : MR-EOM, pCC
   Robert Izsak           : Overlap fitted RIJCOSX, COSX-SCS-MP3, EOM
   Marcus Kettner         : VPT2
   Christian Kollmar      : KDIIS, OOCD, Brueckner-CCSD(T), CCSD density, CASPT2, CASPT2-K
   Simone Kossmann        : Meta GGA functionals, TD-DFT gradient, OOMP2, MP2 Hessian
   Martin Krupicka        : Initial AUTO-CI
   Lucas Lang             : DCDCAS
   Marvin Lechner         : AUTO-CI (C++ implementation), FIC-MRCC
   Dagmar Lenk            : GEPOL surface, SMD
   Dimitrios Liakos       : Extrapolation schemes; Compound Job, initial MDCI parallelization
   Dimitrios Manganas     : Further ROCIS development; embedding schemes
   Dimitrios Pantazis     : SARC Basis sets
   Anastasios Papadopoulos: AUTO-CI, single reference methods and gradients
   Taras Petrenko         : DFT Hessian,TD-DFT gradient, ASA, ECA, R-Raman, ABS, FL, XAS/XES, NRVS
   Peter Pinski           : DLPNO-MP2, DLPNO-MP2 Gradient
   Christoph Reimann      : Effective Core Potentials
   Marius Retegan         : Local ZFS, SOC
   Christoph Riplinger    : Optimizer, TS searches, QM/MM, DLPNO-CCSD(T), (RO)-DLPNO pert. Triples
   Tobias Risthaus        : Range-separated hybrids, TD-DFT gradient, RPA, STAB
   Michael Roemelt        : Original ROCIS implementation
   Masaaki Saitow         : Open-shell DLPNO-CCSD energy and density
   Barbara Sandhoefer     : DKH picture change effects
   Avijit Sen             : IP-ROCIS
   Kantharuban Sivalingam : CASSCF convergence, NEVPT2, FIC-MRCI
   Bernardo de Souza      : ESD, SOC TD-DFT
   Georgi Stoychev        : AutoAux, RI-MP2 NMR, DLPNO-MP2 response
   Willem Van den Heuvel  : Paramagnetic NMR
   Boris Wezisla          : Elementary symmetry handling
   Frank Wennmohs         : Technical directorship


 We gratefully acknowledge several colleagues who have allowed us to
 interface, adapt or use parts of their codes:
   Stefan Grimme, W. Hujo, H. Kruse, P. Pracht,  : VdW corrections, initial TS optimization,
                  C. Bannwarth, S. Ehlert          DFT functionals, gCP, sTDA/sTD-DF
   Ed Valeev, F. Pavosevic, A. Kumar             : LibInt (2-el integral package), F12 methods
   Garnet Chan, S. Sharma, J. Yang, R. Olivares  : DMRG
   Ulf Ekstrom                                   : XCFun DFT Library
   Mihaly Kallay                                 : mrcc  (arbitrary order and MRCC methods)
   Jiri Pittner, Ondrej Demel                    : Mk-CCSD
   Frank Weinhold                                : gennbo (NPA and NBO analysis)
   Christopher J. Cramer and Donald G. Truhlar   : smd solvation model
   Lars Goerigk                                  : TD-DFT with DH, B97 family of functionals
   V. Asgeirsson, H. Jonsson                     : NEB implementation
   FAccTs GmbH                                   : IRC, NEB, NEB-TS, DLPNO-Multilevel, CI-OPT
                                                   MM, QMMM, 2- and 3-layer-ONIOM, Crystal-QMMM,
                                                   LR-CPCM, SF, NACMEs, symmetry and pop. for TD-DFT,
                                                   nearIR, NL-DFT gradient (VV10), updates on ESD,
                                                   ML-optimized integration grids
   S Lehtola, MJT Oliveira, MAL Marques          : LibXC Library
   Liviu Ungur et al                             : ANISO software


 Your calculation uses the libint2 library for the computation of 2-el integrals
 For citations please refer to: http://libint.valeyev.net

 Your ORCA version has been built with support for libXC version: 5.1.0
 For citations please refer to: https://tddft.org/programs/libxc/

 This ORCA versions uses:
   CBLAS   interface :  Fast vector & matrix operations
   LAPACKE interface :  Fast linear algebra routines
   SCALAPACK package :  Parallel linear algebra routines
   Shared memory     :  Shared parallel matrices
   BLAS/LAPACK       :  OpenBLAS 0.3.15  USE64BITINT DYNAMIC_ARCH NO_AFFINITY SkylakeX SINGLE_THREADED
        Core in use  :  SkylakeX
   Copyright (c) 2011-2014, The OpenBLAS Project


================================================================================

----- Orbital basis set information -----
Your calculation utilizes the basis: def2-SVP
   F. Weigend and R. Ahlrichs, Phys. Chem. Chem. Phys. 7, 3297 (2005).

The basis set includes element-specific modifications.

Your calculation utilizes the basis: aug-cc-pVTZ 
    H, B-Ne : Obtained from the ccRepo (grant-hill.group.shef.ac.uk/ccrepo) Feb. 2017
              R. A. Kendall, T. H. Dunning, Jr., R. J. Harrison, J. Chem. Phys. 96, 6796 (1992)
         He : Obtained from the ccRepo (grant-hill.group.shef.ac.uk/ccrepo) Feb. 2017
              D. E. Woon, T. H. Dunning, Jr., J. Chem. Phys. 100, 2975 (1994)
  Li-Be, Na : Obtained from the ccRepo (grant-hill.group.shef.ac.uk/ccrepo) Feb. 2017
              B. P. Prascher, D. E. Woon, K. A. Peterson, T. H. Dunning, Jr., A. K. Wilson, Theor. Chem. Acc. 128, 69 (2011)
         Mg : Obtained from the Peterson Research Group Website (tyr0.chem.wsu.edu/~kipeters) Feb. 2017
              B. P. Prascher, D. E. Woon, K. A. Peterson, T. H. Dunning, Jr., A. K. Wilson, Theor. Chem. Acc. 128, 69 (2011)
      Al-Ar : Obtained from the ccRepo (grant-hill.group.shef.ac.uk/ccrepo) Feb. 2017
              D. E. Woon, T. H. Dunning, Jr., J. Chem. Phys. 98, 1358 (1993)
      Sc-Zn : Obtained from the ccRepo (grant-hill.group.shef.ac.uk/ccrepo) Feb. 2017
              N. B. Balabanov, K. A. Peterson, J. Chem. Phys. 123, 064107 (2005)
              N. B. Balabanov, K. A. Peterson, J. Chem. Phys. 125, 074110 (2006)
      Ga-Kr : Obtained from the ccRepo (grant-hill.group.shef.ac.uk/ccrepo) Feb. 2017
              A. K. Wilson, D. E. Woon, K. A. Peterson, T. H. Dunning, Jr., J. Chem. Phys. 110, 7667 (1999)
     Ag, Au : Obtained from the Peterson Research Group Website (tyr0.chem.wsu.edu/~kipeters) Feb. 2017
              K. A. Peterson, C. Puzzarini, Theor. Chem. Acc. 114, 283 (2005)

Your calculation utilizes the basis: cc-pVTZ 
       H, B-Ne : Obtained from the ccRepo (grant-hill.group.shef.ac.uk/ccrepo) Feb. 2017
                 T. H. Dunning, Jr., J. Chem. Phys. 90, 1007 (1989)
            He : Obtained from the ccRepo (grant-hill.group.shef.ac.uk/ccrepo) Feb. 2017
                 D. E. Woon, T. H. Dunning, Jr., J. Chem. Phys. 100, 2975 (1994)
  Li-Be, Na-Mg : Obtained from the ccRepo (grant-hill.group.shef.ac.uk/ccrepo) Feb. 2017
                 B. P. Prascher, D. E. Woon, K. A. Peterson, T. H. Dunning, Jr., A. K. Wilson, Theor. Chem. Acc. 128, 69 (2011)
         Al-Ar : Obtained from the ccRepo (grant-hill.group.shef.ac.uk/ccrepo) Feb. 2017
                 D. E. Woon, T. H. Dunning, Jr., J. Chem. Phys. 98, 1358 (1993)
            Ca : Obtained from the Peterson Research Group Website (tyr0.chem.wsu.edu/~kipeters) Feb. 2017
                 J. Koput, K. A. Peterson, J. Phys. Chem. 106, 9595 (2002)
         Sc-Zn : Obtained from the ccRepo (grant-hill.group.shef.ac.uk/ccrepo) Feb. 2017
                 N. B. Balabanov, K. A. Peterson, J. Chem. Phys. 123, 064107 (2005)
                 N. B. Balabanov, K. A. Peterson, J. Chem. Phys. 125, 074110 (2006)
         Ga-Kr : Obtained from the ccRepo (grant-hill.group.shef.ac.uk/ccrepo) Feb. 2017
                 A. K. Wilson, D. E. Woon, K. A. Peterson, T. H. Dunning, Jr., J. Chem. Phys. 110, 7667 (1999)
             Y : Obtained from the ccRepo (grant-hill.group.shef.ac.uk/ccrepo) Feb. 2017
                 K. A. Peterson, D. Figgen, M. Dolg, H. Stoll, J. Chem. Phys. 126, 124101 (2007)
        Ag, Au : Obtained from the Peterson Research Group Website (tyr0.chem.wsu.edu/~kipeters) Feb. 2017
                 K. A. Peterson, C. Puzzarini, Theor. Chem. Acc. 114, 283 (2005)

----- AuxJ basis set information -----
Your calculation utilizes the auxiliary basis: def2/J
   F. Weigend, Phys. Chem. Chem. Phys. 8, 1057 (2006).

================================================================================
                                        WARNINGS
                       Please study these warnings very carefully!
================================================================================

WARNING: The globally-selected AuxJ basis set is optimized for use with ECPs
         Make sure a suitable alternative is explicitly given all heavy elements (Z>36)

INFO   : the flag for use of the SHARK integral package has been found!

================================================================================
                                       INPUT FILE
================================================================================
NAME = final100.orca.inp
|  1> ! NoMOPrint PrintBasis #MINIPRINT SMALLPRINT LARGEPRINT
|  2> ! ALLPOP XYZFILE
|  3> #! BP86 3-21G   TightSCF
|  4> ! ENGRAD
|  5> ! B3LYP NormalPNO PModel #DecontractAux
|  6> #! VerySlowConv 
|  7>  %maxcore 5000
|  8>  %scf  maxiter   500  end 
|  9> 
| 10> %pal
| 11>     nprocs 32
| 12> end
| 13> 
| 14> %basis
| 15>     NewGTO O    # New basis for oxygen
| 16>         "aug-cc-pVTZ"
| 17>     end
| 18>     NewGTO C    # New basis for carbon
| 19>         "aug-cc-pVTZ"
| 20>     end
| 21>     NewGTO H    # New basis for hydrogen
| 22>         "cc-pVTZ"
| 23>     end
| 24> end
| 25> 
| 26> * xyz 0   1
| 27>   C  9.8  10.63  9.77  #1
| 28>   H  8.96  11.12  9.35  #2
| 29>   H  9.71  10.45  10.81  #3
| 30>   C  11.1  11.28  9.56  #4
| 31>   H  11.89  10.54  9.56  #5
| 32>   H  11.22  11.75  8.62  #6
| 33>   C  11.44  12.24  10.67  #7
| 34>   H  10.66  12.94  10.93  #8
| 35>   H  12.34  12.83  10.33  #9
| 36>   C  11.88  11.5  11.9  #10
| 37>   H  12.9  11.23  11.71  #11
| 38>   H  11.3  10.57  12.05  #12
| 39>   O  11.89  12.29  13.07  #13
| 40>   H  10.94  12.57  13.25  #14
| 41>   O  9.89  9.39  9.13  #15
| 42>   H  9.09  8.92  9.11  #16
| 43>   O  7.55  9.88  12.45  #17
| 44>   H  8.12  10.62  12.68  #18
| 45>   H  8.17  9.16  12.36  #19
| 46>   O  12.3  16.11  10.29  #20
| 47>   H  12.77  16.87  10.53  #21
| 48>   H  12.96  15.41  10.63  #22
| 49>   O  13.46  8.27  10.23  #23
| 50>   H  12.54  7.94  10.32  #24
| 51>   H  13.88  7.57  9.83  #25
| 52>   O  14.36  14.36  11.64  #26
| 53>   H  14.66  13.46  11.48  #27
| 54>   H  13.93  14.51  12.52  #28
| 55>   O  9.92  16  12  #29
| 56>   H  9.24  15.36  11.95  #30
| 57>   H  10.69  15.74  11.4  #31
| 58>   O  5.49  11.28  10.92  #32
| 59>   H  4.78  11.04  11.49  #33
| 60>   H  6.35  11.07  11.39  #34
| 61>   O  15.12  5.89  9.41  #35
| 62>   H  14.52  5.25  9.79  #36
| 63>   H  15.71  5.32  8.89  #37
| 64>   O  8.67  12.62  12.9  #38
| 65>   H  8.14  13.42  12.78  #39
| 66>   H  8.74  12.61  13.89  #40
| 67>   O  6.7  10.85  8.35  #41
| 68>   H  5.92  10.88  7.8  #42
| 69>   H  6.4  10.97  9.29  #43
| 70>   O  8.38  12.71  7.13  #44
| 71>   H  8.06  12.81  6.25  #45
| 72>   H  7.86  11.93  7.49  #46
| 73>   O  15  11.63  10.63  #47
| 74>   H  14.56  11.6  9.72  #48
| 75>   H  15.62  10.94  10.67  #49
| 76>   O  8.14  17.79  13.59  #50
| 77>   H  8.19  17.15  12.88  #51
| 78>   H  7.77  17.32  14.37  #52
| 79>   O  12.6  13.3  5.77  #53
| 80>   H  12.32  14.24  5.96  #54
| 81>   H  13.05  12.86  6.52  #55
| 82>   O  13.88  12.61  14.83  #56
| 83>   H  13.09  12.23  14.42  #57
| 84>   H  13.72  12.54  15.78  #58
| 85>   O  14.21  12.31  7.84  #59
| 86>   H  15.07  12.22  7.39  #60
| 87>   H  14.29  13.17  8.24  #61
| 88>   O  12.01  15.79  7.06  #62
| 89>   H  12.01  16.75  6.95  #63
| 90>   H  12.59  15.75  7.88  #64
| 91>   O  11.34  17.02  14.34  #65
| 92>   H  10.68  16.77  13.64  #66
| 93>   H  12.07  17.21  13.77  #67
| 94>   O  9.03  7.74  12.4  #68
| 95>   H  9.76  7.82  13.01  #69
| 96>   H  8.41  7.07  12.85  #70
| 97>   O  5.46  7.83  11.75  #71
| 98>   H  6.31  8.34  11.64  #72
| 99>   H  5.52  7.34  12.58  #73
|100>   O  10.72  9.04  6.54  #74
|101>   H  10.64  9.26  7.48  #75
|102>   H  11.34  8.33  6.38  #76
|103>   O  9.72  18.05  9.66  #77
|104>   H  9.84  17.21  10.13  #78
|105>   H  8.97  17.93  9.14  #79
|106>   O  13.62  17.79  12.21  #80
|107>   H  13.45  18.71  12.44  #81
|108>   H  14.57  17.67  12.41  #82
|109>   O  10.8  6.51  10.66  #83
|110>   H  10.73  6.73  9.75  #84
|111>   H  10.02  7  11.17  #85
|112>   O  11.3  7.92  14.08  #86
|113>   H  11.29  8.84  14.38  #87
|114>   H  12.2  7.85  13.66  #88
|115>   O  7.45  7.8  8.22  #89
|116>   H  7.7  6.99  7.74  #90
|117>   H  7.69  8.56  7.7  #91
|118>   O  7.2  15.09  12.23  #92
|119>   H  6.68  15.33  11.38  #93
|120>   H  6.65  15.3  13.01  #94
|121>   O  6.25  9.76  14.85  #95
|122>   H  6.94  9.33  15.36  #96
|123>   H  6.41  9.59  13.87  #97
|124>   O  13.15  7.23  7.09  #98
|125>   H  13.93  7.7  7.47  #99
|126>   H  12.72  6.77  7.78  #100
|127>   O  13.84  7.74  13  #101
|128>   H  14.68  7.31  12.8  #102
|129>   H  13.65  8.28  12.17  #103
|130>   Q  0.6645  19.4$  11.97$  8.6$
|131>   Q  0.6645  20.67$  12.2$  9.37$
|132>   Q  -1.3290  20.08$  12.41$  8.81$
|133>   Q  0.6645  3.6$  8.71$  5.81$
|134>   Q  0.6645  4.96$  9.13$  5.28$
|135>   Q  -1.3290  4.39$  8.57$  5.52$
|136>   Q  0.6645  9.08$  16.26$  20.91$
|137>   Q  0.6645  7.65$  16.67$  20.29$
|138>   Q  -1.3290  8.48$  16.43$  20.31$
|139>   Q  0.6645  16.27$  10.23$  3.96$
|140>   Q  0.6645  14.8$  9.93$  3.91$
|141>   Q  -1.3290  15.48$  10.26$  4.24$
|142>   Q  0.6645  11.18$  19.46$  4.47$
|143>   Q  0.6645  11.98$  18.3$  3.87$
|144>   Q  -1.3290  11.27$  18.72$  4.07$
|145>   Q  0.6645  13.38$  7.77$  3.84$
|146>   Q  0.6645  13.39$  6.98$  5.26$
|147>   Q  -1.3290  13.33$  7.09$  4.39$
|148>   Q  0.6645  19.76$  7.63$  14.79$
|149>   Q  0.6645  18.83$  8.69$  14.13$
|150>   Q  -1.3290  19.4$  8.39$  14.68$
|151>   Q  0.6645  8.17$  15.1$  2.19$
|152>   Q  0.6645  9.11$  15.44$  3.3$
|153>   Q  -1.3290  8.82$  14.94$  2.69$
|154>   Q  0.6645  3.95$  3.5$  13.72$
|155>   Q  0.6645  4.23$  4.42$  12.51$
|156>   Q  -1.3290  4.01$  4.23$  13.32$
|157>   Q  0.6645  1.73$  8.67$  7.51$
|158>   Q  0.6645  1.49$  9.22$  6$
|159>   Q  -1.3290  1.85$  8.75$  6.64$
|160>   Q  0.6645  17.9$  10.55$  6.9$
|161>   Q  0.6645  19.11$  10.52$  6.19$
|162>   Q  -1.3290  18.68$  10.41$  6.83$
|163>   Q  0.6645  16.54$  9.84$  8.58$
|164>   Q  0.6645  17.8$  10.24$  9.34$
|165>   Q  -1.3290  17.03$  9.91$  9.26$
|166>   Q  0.6645  6.42$  13.79$  16.79$
|167>   Q  0.6645  5.74$  14.48$  15.72$
|168>   Q  -1.3290  6$  14.41$  16.51$
|169>   Q  0.6645  5.17$  1.23$  10.9$
|170>   Q  0.6645  6.3$  2.28$  10.9$
|171>   Q  -1.3290  5.62$  1.9$  10.6$
|172>   Q  0.6645  21.51$  10.97$  13.37$
|173>   Q  0.6645  20.75$  9.86$  14.35$
|174>   Q  -1.3290  21.3$  10.51$  14.12$
|175>   Q  0.6645  4.07$  7.24$  4.08$
|176>   Q  0.6645  4.2$  6.81$  2.57$
|177>   Q  -1.3290  3.83$  6.86$  3.33$
|178>   Q  0.6645  0.84$  6.19$  13.4$
|179>   Q  0.6645  2.33$  5.85$  13.71$
|180>   Q  -1.3290  1.68$  6.36$  13.51$
|181>   Q  0.6645  14.99$  11.65$  1.66$
|182>   Q  0.6645  15.02$  10.97$  0.24$
|183>   Q  -1.3290  14.67$  11.25$  0.98$
|184>   Q  0.6645  8.57$  12.26$  16.39$
|185>   Q  0.6645  9.57$  13.45$  16.05$
|186>   Q  -1.3290  9.11$  12.73$  15.91$
|187>   Q  0.6645  20.13$  7.7$  9.18$
|188>   Q  0.6645  20.01$  7.44$  10.66$
|189>   Q  -1.3290  20.39$  7.76$  9.97$
|190>   Q  0.6645  6.37$  16.93$  9.27$
|191>   Q  0.6645  5.45$  17.36$  10.37$
|192>   Q  -1.3290  5.91$  16.8$  9.95$
|193>   Q  0.6645  17.02$  14.93$  10.07$
|194>   Q  0.6645  17.07$  16.36$  9.53$
|195>   Q  -1.3290  16.99$  15.76$  10.14$
|196>   Q  0.6645  16.78$  17.69$  12.32$
|197>   Q  0.6645  16.24$  16.34$  12.06$
|198>   Q  -1.3290  16.37$  17$  12.53$
|199>   Q  0.6645  4.42$  8.86$  8.55$
|200>   Q  0.6645  4.51$  9.86$  9.71$
|201>   Q  -1.3290  4.26$  9.59$  8.95$
|202>   Q  0.6645  14.18$  10.39$  17.93$
|203>   Q  0.6645  12.9$  10.71$  18.68$
|204>   Q  -1.3290  13.58$  10.89$  18.22$
|205>   Q  0.6645  17.57$  13.83$  3.19$
|206>   Q  0.6645  16.07$  13.95$  3.15$
|207>   Q  -1.3290  16.85$  13.98$  2.84$
|208>   Q  0.6645  12.54$  13.73$  1.18$
|209>   Q  0.6645  13.24$  12.48$  0.72$
|210>   Q  -1.3290  12.96$  13.28$  0.62$
|211>   Q  0.6645  3.41$  4.7$  10.21$
|212>   Q  0.6645  4.47$  3.56$  10.48$
|213>   Q  -1.3290  4.18$  4.36$  10.53$
|214>   Q  0.6645  11.76$  8.93$  19.36$
|215>   Q  0.6645  11.37$  9.58$  20.56$
|216>   Q  -1.3290  11.56$  9.58$  19.76$
|217>   Q  0.6645  5.98$  11.27$  1.41$
|218>   Q  0.6645  5.5$  10.48$  2.63$
|219>   Q  -1.3290  5.4$  10.89$  1.9$
|220>   Q  0.6645  5.56$  18.94$  8.45$
|221>   Q  0.6645  5.93$  20.37$  8.71$
|222>   Q  -1.3290  5.41$  19.72$  8.73$
|223>   Q  0.6645  15.6$  19.93$  11.59$
|224>   Q  0.6645  16.65$  20.09$  10.43$
|225>   Q  -1.3290  16.22$  19.69$  11.06$
|226>   Q  0.6645  17.6$  7.78$  3.72$
|227>   Q  0.6645  16.95$  6.4$  3.85$
|228>   Q  -1.3290  17.55$  6.95$  3.95$
|229>   Q  0.6645  16.65$  6.96$  14.45$
|230>   Q  0.6645  16.07$  5.72$  13.75$
|231>   Q  -1.3290  16.34$  6.51$  13.8$
|232>   Q  0.6645  7$  5.21$  3.98$
|233>   Q  0.6645  6.86$  6.68$  4.2$
|234>   Q  -1.3290  7.15$  5.91$  4.4$
|235>   Q  0.6645  7.39$  12.62$  18.56$
|236>   Q  0.6645  6.64$  11.34$  17.99$
|237>   Q  -1.3290  7.25$  11.96$  18.03$
|238>   Q  0.6645  17.12$  8.78$  12.46$
|239>   Q  0.6645  17.81$  9.94$  12.07$
|240>   Q  -1.3290  17.31$  9.54$  12.57$
|241>   Q  0.6645  2.62$  16.53$  6.35$
|242>   Q  0.6645  1.21$  17.19$  6$
|243>   Q  -1.3290  1.96$  17.1$  6.42$
|244>   Q  0.6645  2.73$  13.31$  4.44$
|245>   Q  0.6645  1.27$  13.69$  4.72$
|246>   Q  -1.3290  1.94$  13.2$  4.77$
|247>   Q  0.6645  5.41$  18.67$  14.67$
|248>   Q  0.6645  4.93$  18.54$  13.22$
|249>   Q  -1.3290  4.92$  18.41$  14.03$
|250>   Q  0.6645  9.78$  3.09$  8.33$
|251>   Q  0.6645  9.99$  3.59$  9.79$
|252>   Q  -1.3290  10.2$  3.15$  9.09$
|253>   Q  0.6645  16.36$  8.35$  6.78$
|254>   Q  0.6645  15.88$  9.68$  6.07$
|255>   Q  -1.3290  16.01$  9.14$  6.74$
|256>   Q  0.6645  18.54$  18.63$  17.21$
|257>   Q  0.6645  18.24$  17.13$  17.15$
|258>   Q  -1.3290  18.07$  17.92$  17.37$
|259>   Q  0.6645  11.53$  13.04$  20.96$
|260>   Q  0.6645  10.89$  11.82$  20.23$
|261>   Q  -1.3290  10.94$  12.61$  20.54$
|262>   Q  0.6645  16.49$  11.22$  13.42$
|263>   Q  0.6645  15.6$  12.26$  14.42$
|264>   Q  -1.3290  16.27$  11.97$  13.9$
|265>   Q  0.6645  11.47$  15.7$  1.61$
|266>   Q  0.6645  11.02$  14.84$  2.85$
|267>   Q  -1.3290  11.57$  15.16$  2.26$
|268>   Q  0.6645  2.95$  9.84$  12.49$
|269>   Q  0.6645  3.26$  10.97$  13.5$
|270>   Q  -1.3290  3.17$  10.62$  12.74$
|271>   Q  0.6645  15.67$  15.35$  17.26$
|272>   Q  0.6645  16$  14.8$  18.63$
|273>   Q  -1.3290  15.51$  15.12$  18.05$
|274>   Q  0.6645  13.24$  16.47$  3.28$
|275>   Q  0.6645  14.24$  17.64$  3.2$
|276>   Q  -1.3290  13.53$  17.22$  3.48$
|277>   Q  0.6645  12.29$  15.56$  19.13$
|278>   Q  0.6645  12.63$  17.06$  19.42$
|279>   Q  -1.3290  12.45$  16.22$  19.62$
|280>   Q  0.6645  2.75$  12.18$  8.28$
|281>   Q  0.6645  2.43$  12.7$  6.92$
|282>   Q  -1.3290  2.82$  12.71$  7.66$
|283>   Q  0.6645  2.43$  2.4$  9.01$
|284>   Q  0.6645  3.47$  1.99$  7.96$
|285>   Q  -1.3290  2.69$  2.08$  8.28$
|286>   Q  0.6645  13.54$  9.81$  2.23$
|287>   Q  0.6645  12.64$  9.94$  3.45$
|288>   Q  -1.3290  13.12$  9.53$  2.9$
|289>   Q  0.6645  12.48$  1.39$  7.58$
|290>   Q  0.6645  11.64$  1.69$  8.81$
|291>   Q  -1.3290  12.27$  1.29$  8.37$
|292>   Q  0.6645  19.5$  16.87$  12.15$
|293>   Q  0.6645  18.52$  16.63$  11.08$
|294>   Q  -1.3290  19$  17.1$  11.52$
|295>   Q  0.6645  6.75$  5.19$  6.41$
|296>   Q  0.6645  6.04$  5.68$  7.65$
|297>   Q  -1.3290  6.62$  5.23$  7.26$
|298>   Q  0.6645  5.15$  7.23$  14.63$
|299>   Q  0.6645  4.88$  5.77$  14.12$
|300>   Q  -1.3290  5.34$  6.47$  14.27$
|301>   Q  0.6645  2.16$  8.69$  9.84$
|302>   Q  0.6645  0.64$  8.44$  9.73$
|303>   Q  -1.3290  1.42$  8.59$  9.44$
|304>   Q  0.6645  1.24$  14.33$  11.96$
|305>   Q  0.6645  2.65$  14.29$  11.33$
|306>   Q  -1.3290  2.08$  14.48$  11.93$
|307>   Q  0.6645  17.35$  6.54$  5.82$
|308>   Q  0.6645  16.95$  5.83$  7.14$
|309>   Q  -1.3290  17.09$  6.51$  6.63$
|310>   Q  0.6645  12.32$  9.96$  16.44$
|311>   Q  0.6645  11.12$  10.91$  16.29$
|312>   Q  -1.3290  11.6$  10.24$  16.1$
|313>   Q  0.6645  15.06$  9.32$  15.76$
|314>   Q  0.6645  14.15$  8.51$  14.8$
|315>   Q  -1.3290  14.42$  8.8$  15.52$
|316>   Q  0.6645  15.81$  17.12$  14.59$
|317>   Q  0.6645  15.97$  17.5$  16.14$
|318>   Q  -1.3290  15.72$  17.03$  15.43$
|319>   Q  0.6645  18.52$  5.72$  15.93$
|320>   Q  0.6645  18.84$  7.13$  16.44$
|321>   Q  -1.3290  18.38$  6.44$  16.33$
|322>   Q  0.6645  14.25$  21.21$  12.9$
|323>   Q  0.6645  15.65$  22.03$  12.79$
|324>   Q  -1.3290  14.93$  21.62$  12.51$
|325>   Q  0.6645  17.26$  15.55$  13.87$
|326>   Q  0.6645  17$  13.99$  13.75$
|327>   Q  -1.3290  17.49$  14.7$  13.85$
|328>   Q  0.6645  22.14$  15.16$  8.16$
|329>   Q  0.6645  20.83$  14.3$  8.43$
|330>   Q  -1.3290  21.33$  14.89$  8.07$
|331>   Q  0.6645  16.71$  17.79$  7.67$
|332>   Q  0.6645  18.07$  17.83$  8.38$
|333>   Q  -1.3290  17.44$  17.48$  7.96$
|334>   Q  0.6645  18.44$  17.76$  6.1$
|335>   Q  0.6645  17.52$  18.33$  5.02$
|336>   Q  -1.3290  18.14$  17.84$  5.33$
|337>   Q  0.6645  7.92$  5.21$  17.37$
|338>   Q  0.6645  8.64$  5.93$  18.62$
|339>   Q  -1.3290  8.39$  5.79$  17.79$
|340>   Q  0.6645  6.51$  16.53$  5.42$
|341>   Q  0.6645  6.29$  14.96$  5.54$
|342>   Q  -1.3290  6.27$  15.77$  5.76$
|343>   Q  0.6645  18.88$  14.57$  4.82$
|344>   Q  0.6645  19.36$  14.88$  3.51$
|345>   Q  -1.3290  19.15$  14.35$  4.08$
|346>   Q  0.6645  11.67$  5.97$  3.83$
|347>   Q  0.6645  10.47$  5.42$  4.54$
|348>   Q  -1.3290  10.97$  5.59$  3.84$
|349>   Q  0.6645  8.87$  14.81$  7.72$
|350>   Q  0.6645  9.93$  15.91$  7.79$
|351>   Q  -1.3290  9.15$  15.61$  7.74$
|352>   Q  0.6645  2.46$  5.67$  7.9$
|353>   Q  0.6645  2.28$  6.79$  8.93$
|354>   Q  -1.3290  2.37$  6$  8.68$
|355>   Q  0.6645  11.89$  20.21$  13.12$
|356>   Q  0.6645  12.95$  19.85$  14.23$
|357>   Q  -1.3290  12.66$  20.07$  13.46$
|358>   Q  0.6645  9.95$  3.6$  13.61$
|359>   Q  0.6645  10.36$  3.91$  15.06$
|360>   Q  -1.3290  9.81$  3.73$  14.44$
|361>   Q  0.6645  9.23$  16.14$  5.61$
|362>   Q  0.6645  10.04$  17.23$  4.75$
|363>   Q  -1.3290  9.45$  16.59$  4.9$
|364>   Q  0.6645  13.59$  7.45$  18.91$
|365>   Q  0.6645  14.45$  7.54$  17.54$
|366>   Q  -1.3290  14.3$  7.61$  18.38$
|367>   Q  0.6645  10.9$  15.42$  15.57$
|368>   Q  0.6645  11.51$  14.76$  16.8$
|369>   Q  -1.3290  10.88$  15.07$  16.33$
|370>   Q  0.6645  17.01$  8.15$  18.4$
|371>   Q  0.6645  17.62$  9.13$  19.38$
|372>   Q  -1.3290  17.55$  8.79$  18.61$
|373>   Q  0.6645  7.95$  2.34$  6.67$
|374>   Q  0.6645  7.91$  3.81$  7.14$
|375>   Q  -1.3290  8.25$  3.05$  7.1$
|376>   Q  0.6645  10.14$  4.28$  2.45$
|377>   Q  0.6645  9.96$  3.81$  0.96$
|378>   Q  -1.3290  9.82$  3.79$  1.83$
|379>   Q  0.6645  4.58$  15.51$  17.22$
|380>   Q  0.6645  3.15$  14.9$  17.3$
|381>   Q  -1.3290  3.72$  15.53$  17.28$
|382>   Q  0.6645  9.23$  1.74$  9.74$
|383>   Q  0.6645  8.94$  1.23$  11.05$
|384>   Q  -1.3290  8.78$  1.31$  10.28$
|385>   Q  0.6645  7.84$  21.83$  8.79$
|386>   Q  0.6645  8.14$  20.7$  7.79$
|387>   Q  -1.3290  7.65$  21.27$  8.18$
|388>   Q  0.6645  9.26$  9.12$  5.67$
|389>   Q  0.6645  8.78$  8.47$  4.29$
|390>   Q  -1.3290  8.71$  8.75$  5.11$
|391>   Q  0.6645  15.02$  3.23$  14.03$
|392>   Q  0.6645  14.32$  4.17$  13.02$
|393>   Q  -1.3290  14.82$  3.96$  13.64$
|394>   Q  0.6645  4.66$  10.72$  15.15$
|395>   Q  0.6645  3.45$  11.26$  15.97$
|396>   Q  -1.3290  4.01$  11.21$  15.31$
|397>   Q  0.6645  7.46$  0.21$  6.58$
|398>   Q  0.6645  7.13$  0.16$  4.97$
|399>   Q  -1.3290  7.41$  0.53$  5.72$
|400>   Q  0.6645  5.87$  7.13$  8.86$
|401>   Q  0.6645  4.67$  6.28$  9.45$
|402>   Q  -1.3290  5.09$  6.74$  8.88$
|403>   Q  0.6645  13.27$  18.31$  17.9$
|404>   Q  0.6645  14.35$  18.31$  19.07$
|405>   Q  -1.3290  13.58$  18.36$  18.71$
|406>   Q  0.6645  11.64$  21.34$  8.14$
|407>   Q  0.6645  10.79$  20.65$  9.18$
|408>   Q  -1.3290  11.17$  20.73$  8.44$
|409>   Q  0.6645  8.08$  14.39$  20.37$
|410>   Q  0.6645  9.2$  13.36$  20.44$
|411>   Q  -1.3290  8.4$  13.6$  20.5$
|412>   Q  0.6645  1.49$  4.53$  5.81$
|413>   Q  0.6645  2.01$  3.63$  6.9$
|414>   Q  -1.3290  1.95$  4.36$  6.48$
|415>   Q  0.6645  3.97$  4.95$  5.65$
|416>   Q  0.6645  4$  4.84$  4.08$
|417>   Q  -1.3290  4.19$  4.64$  4.89$
|418>   Q  0.6645  3.81$  7.52$  16.74$
|419>   Q  0.6645  3.55$  8.79$  15.95$
|420>   Q  -1.3290  4.02$  8.19$  16.31$
|421>   Q  0.6645  9.35$  19.36$  13.5$
|422>   Q  0.6645  10.1$  20.07$  14.7$
|423>   Q  -1.3290  9.86$  19.95$  13.9$
|424>   Q  0.6645  10.22$  7.14$  2.66$
|425>   Q  0.6645  10.45$  8.63$  2.12$
|426>   Q  -1.3290  10.04$  7.99$  2.5$
|427>   Q  0.6645  4.4$  15.26$  6.18$
|428>   Q  0.6645  3.36$  14.25$  6.07$
|429>   Q  -1.3290  3.65$  14.99$  5.95$
|430>   Q  0.6645  10.71$  16.79$  17.52$
|431>   Q  0.6645  9.62$  16.94$  18.63$
|432>   Q  -1.3290  10.09$  17.18$  17.93$
|433>   Q  0.6645  18.54$  5.02$  11.23$
|434>   Q  0.6645  18.19$  6.42$  11.61$
|435>   Q  -1.3290  18.72$  5.78$  11.5$
|436>   Q  0.6645  6.46$  11.14$  4.55$
|437>   Q  0.6645  6.9$  9.69$  4.71$
|438>   Q  -1.3290  6.42$  10.32$  4.42$
|439>   Q  0.6645  11$  4.83$  8.35$
|440>   Q  0.6645  10.25$  5.92$  7.34$
|441>   Q  -1.3290  10.79$  5.59$  7.97$
|442>   Q  0.6645  11.98$  3.48$  16.28$
|443>   Q  0.6645  11.94$  4.98$  16.02$
|444>   Q  -1.3290  12.2$  4.21$  15.91$
|445>   Q  0.6645  4.73$  15.28$  14.06$
|446>   Q  0.6645  5.37$  16.61$  13.83$
|447>   Q  -1.3290  5.39$  15.79$  14.05$
|448>   Q  0.6645  15.16$  15.33$  9.13$
|449>   Q  0.6645  14.8$  15.57$  7.67$
|450>   Q  -1.3290  14.84$  15.15$  8.4$
|451>   Q  0.6645  8.92$  20.19$  5.58$
|452>   Q  0.6645  9.92$  19.59$  6.46$
|453>   Q  -1.3290  9.15$  19.69$  6.17$
|454>   Q  0.6645  6.78$  20.36$  12.21$
|455>   Q  0.6645  5.49$  20.85$  12.63$
|456>   Q  -1.3290  6.31$  20.76$  12.72$
|457>   Q  0.6645  17.04$  12.71$  7.79$
|458>   Q  0.6645  16.91$  13.19$  6.24$
|459>   Q  -1.3290  16.89$  12.63$  6.93$
|460>   Q  0.6645  14.44$  20.02$  5.43$
|461>   Q  0.6645  13.24$  20.13$  6.39$
|462>   Q  -1.3290  13.76$  20.39$  5.78$
|463>   Q  0.6645  8.34$  11.68$  1.3$
|464>   Q  0.6645  7.62$  12.43$  0.04$
|465>   Q  -1.3290  7.77$  11.82$  0.63$
|466>   Q  0.6645  14.55$  16.45$  5.56$
|467>   Q  0.6645  16.01$  16.61$  5.61$
|468>   Q  -1.3290  15.27$  16.44$  5.94$
|469>   Q  0.6645  22.19$  11.99$  11.26$
|470>   Q  0.6645  20.98$  12.71$  12.07$
|471>   Q  -1.3290  21.52$  12.07$  11.8$
|472>   Q  0.6645  1.79$  16.96$  8.36$
|473>   Q  0.6645  2.46$  15.86$  9.1$
|474>   Q  -1.3290  1.81$  16.33$  8.89$
|475>   Q  0.6645  7.79$  18.73$  7.27$
|476>   Q  0.6645  7.8$  17.24$  7.57$
|477>   Q  -1.3290  7.47$  18.02$  7.64$
|478>   Q  0.6645  18.71$  13.89$  12.47$
|479>   Q  0.6645  19.91$  14.52$  11.63$
|480>   Q  -1.3290  19.34$  13.91$  11.89$
|481>   Q  0.6645  8.47$  5.09$  13.94$
|482>   Q  0.6645  7.13$  5.65$  13.9$
|483>   Q  -1.3290  7.85$  5.45$  13.56$
|484>   Q  0.6645  3.85$  7.86$  11.59$
|485>   Q  0.6645  2.43$  7.47$  11.95$
|486>   Q  -1.3290  2.99$  8$  11.62$
|487>   Q  0.6645  10.62$  19.44$  10.74$
|488>   Q  0.6645  12.14$  19.82$  10.47$
|489>   Q  -1.3290  11.33$  19.92$  10.73$
|490>   Q  0.6645  19.9$  9.6$  10.31$
|491>   Q  0.6645  20.05$  11.03$  11.09$
|492>   Q  -1.3290  19.64$  10.36$  10.69$
|493>   Q  0.6645  5.01$  9.72$  18.86$
|494>   Q  0.6645  4.77$  9.73$  17.36$
|495>   Q  -1.3290  5.12$  10.02$  18.09$
|496>   Q  0.6645  2.28$  11.75$  10.98$
|497>   Q  0.6645  1.86$  10.71$  9.83$
|498>   Q  -1.3290  1.93$  11.45$  10.26$
|499>   Q  0.6645  8.56$  8.73$  17.15$
|500>   Q  0.6645  8$  7.38$  16.83$
|501>   Q  -1.3290  8.23$  8.19$  16.65$
|502>   Q  0.6645  10.11$  11.37$  3.06$
|503>   Q  0.6645  9.79$  12.7$  2.28$
|504>   Q  -1.3290  9.78$  11.86$  2.42$
|505>   Q  0.6645  8.32$  17$  16.96$
|506>   Q  0.6645  7.18$  16.05$  16.53$
|507>   Q  -1.3290  7.6$  16.79$  16.54$
|508>   Q  0.6645  12.66$  13.27$  18.32$
|509>   Q  0.6645  13.66$  14.41$  17.96$
|510>   Q  -1.3290  12.89$  14.01$  17.98$
|511>   Q  0.6645  21.04$  11.8$  15.4$
|512>   Q  0.6645  21.13$  11.99$  16.88$
|513>   Q  -1.3290  20.98$  12.27$  16.11$
|514>   Q  0.6645  7.81$  4.06$  1.75$
|515>   Q  0.6645  6.27$  3.81$  1.9$
|516>   Q  -1.3290  7$  4.25$  1.91$
|517>   Q  0.6645  12.63$  5.02$  11.11$
|518>   Q  0.6645  13.12$  3.64$  10.61$
|519>   Q  -1.3290  13.22$  4.41$  10.93$
|520>   Q  0.6645  18.41$  14.14$  7.34$
|521>   Q  0.6645  18.1$  15.54$  6.97$
|522>   Q  -1.3290  18.44$  14.81$  6.85$
|523>   Q  0.6645  0.94$  9.98$  3.77$
|524>   Q  0.6645  1.27$  11.07$  4.88$
|525>   Q  -1.3290  0.94$  10.34$  4.54$
|526>   Q  0.6645  16.71$  11.04$  15.79$
|527>   Q  0.6645  16.89$  10.12$  17.02$
|528>   Q  -1.3290  16.46$  10.51$  16.4$
|529>   Q  0.6645  17.06$  8.18$  10.47$
|530>   Q  0.6645  16.34$  6.88$  10.83$
|531>   Q  -1.3290  16.98$  7.47$  10.9$
|532>   Q  0.6645  10.31$  19.14$  17.26$
|533>   Q  0.6645  9.91$  20.64$  17.13$
|534>   Q  -1.3290  10.31$  19.9$  16.92$
|535>   Q  0.6645  16.34$  11.13$  19.79$
|536>   Q  0.6645  14.81$  11.39$  19.93$
|537>   Q  -1.3290  15.57$  11.09$  20.17$
|538>   Q  0.6645  4.45$  15.16$  9.73$
|539>   Q  0.6645  3.84$  13.94$  9.2$
|540>   Q  -1.3290  3.84$  14.6$  9.7$
|541>   Q  0.6645  12.7$  20.63$  16.7$
|542>   Q  0.6645  14.04$  21.35$  16.69$
|543>   Q  -1.3290  13.2$  21.28$  16.54$
|544>   Q  0.6645  18.97$  12.68$  16.2$
|545>   Q  0.6645  17.86$  13.3$  15.34$
|546>   Q  -1.3290  18.24$  13.06$  16.08$
|547>   Q  0.6645  9.9$  9.77$  0.39$
|548>   Q  0.6645  10.87$  10.8$  0.83$
|549>   Q  -1.3290  10.65$  10.06$  0.6$
|550>   Q  0.6645  11.82$  11.66$  4.94$
|551>   Q  0.6645  11.38$  10.21$  5.13$
|552>   Q  -1.3290  11.5$  10.92$  4.69$
|553>   Q  0.6645  3.46$  18.7$  11.22$
|554>   Q  0.6645  4.54$  19.34$  10.43$
|555>   Q  -1.3290  4.24$  18.85$  11.01$
|556>   Q  0.6645  7.89$  1.91$  13.32$
|557>   Q  0.6645  6.71$  0.93$  12.97$
|558>   Q  -1.3290  7.07$  1.66$  13.26$
|559>   Q  0.6645  16.83$  12.58$  10$
|560>   Q  0.6645  18.31$  13.32$  10.1$
|561>   Q  -1.3290  17.51$  13.13$  9.8$
|562>   Q  0.6645  7.46$  13.51$  4.15$
|563>   Q  0.6645  5.92$  13.39$  4.36$
|564>   Q  -1.3290  6.74$  13.35$  4.61$
|565>   Q  0.6645  13.79$  18.04$  15.49$
|566>   Q  0.6645  12.3$  18.2$  15.6$
|567>   Q  -1.3290  13.11$  18.42$  15.76$
|568>   Q  0.6645  4.24$  14.1$  2.82$
|569>   Q  0.6645  4.53$  12.6$  2.62$
|570>   Q  -1.3290  4.38$  13.27$  3.07$
|571>   Q  0.6645  17.88$  4.05$  8.27$
|572>   Q  0.6645  16.62$  3.64$  7.62$
|573>   Q  -1.3290  17.11$  4.22$  8.05$
|574>   Q  0.6645  19.01$  15.02$  15.96$
|575>   Q  0.6645  19.66$  16.33$  15.47$
|576>   Q  -1.3290  19.35$  15.78$  16.05$
|577>   Q  0.6645  8.01$  7.7$  1.84$
|578>   Q  0.6645  7.08$  6.43$  1.48$
|579>   Q  -1.3290  7.31$  7.25$  1.59$
|580>   Q  0.6645  17.38$  13.1$  19.02$
|581>   Q  0.6645  16.98$  12.19$  17.83$
|582>   Q  -1.3290  17.23$  12.37$  18.63$
|583>   Q  0.6645  14.02$  12.92$  4.59$
|584>   Q  0.6645  15.34$  12.21$  4.36$
|585>   Q  -1.3290  14.79$  12.83$  4.27$
|586>   Q  0.6645  13.27$  18.38$  7.83$
|587>   Q  0.6645  12.03$  19.24$  7.9$
|588>   Q  -1.3290  12.56$  18.73$  7.5$
|589>   Q  0.6645  10.79$  7.08$  19.25$
|590>   Q  0.6645  11.56$  7.02$  17.85$
|591>   Q  -1.3290  11.44$  7.22$  18.7$
|592>   Q  0.6645  10.12$  6.59$  16.55$
|593>   Q  0.6645  11.28$  7.07$  15.5$
|594>   Q  -1.3290  10.92$  6.63$  16.15$
|595>   Q  0.6645  14.74$  2.29$  6.74$
|596>   Q  0.6645  16.15$  2.08$  6.01$
|597>   Q  -1.3290  15.59$  2.25$  6.66$
|598>   Q  0.6645  3.19$  14.18$  13.56$
|599>   Q  0.6645  3.7$  13.3$  14.65$
|600>   Q  -1.3290  3.47$  14.01$  14.35$
|601>   Q  0.6645  15.3$  18.92$  9.47$
|602>   Q  0.6645  15.33$  19.84$  8.32$
|603>   Q  -1.3290  15.25$  19.1$  8.66$
|604>   Q  0.6645  5.48$  2.4$  8.36$
|605>   Q  0.6645  5.33$  3.25$  7.09$
|606>   Q  -1.3290  5.25$  2.56$  7.55$
|607>   Q  0.6645  9.94$  9.64$  18.89$
|608>   Q  0.6645  8.6$  10.53$  18.66$
|609>   Q  -1.3290  9.07$  9.78$  18.77$
|610>   Q  0.6645  9.87$  4.98$  11.21$
|611>   Q  0.6645  8.67$  4.41$  11.92$
|612>   Q  -1.3290  9.38$  4.33$  11.46$
|613>   Q  0.6645  10.63$  1.32$  13.25$
|614>   Q  0.6645  9.71$  0.04$  13.19$
|615>   Q  -1.3290  9.89$  0.87$  13.2$
|616>   Q  0.6645  12.22$  3.03$  14.12$
|617>   Q  0.6645  12.83$  2.67$  12.72$
|618>   Q  -1.3290  12.31$  2.61$  13.37$
|619>   Q  0.6645  7.16$  18.84$  16.1$
|620>   Q  0.6645  7.12$  19.41$  14.75$
|621>   Q  -1.3290  6.93$  19.41$  15.53$
|622>   Q  0.6645  19.39$  8.64$  7.32$
|623>   Q  0.6645  18.68$  7.42$  7.39$
|624>   Q  -1.3290  19.36$  7.85$  7.45$
|625>   Q  0.6645  7.67$  17.68$  3.72$
|626>   Q  0.6645  6.29$  17.72$  2.96$
|627>   Q  -1.3290  6.83$  17.63$  3.64$
|628>   Q  0.6645  14.58$  5.74$  3.36$
|629>   Q  0.6645  15.02$  4.28$  3.13$
|630>   Q  -1.3290  15.1$  5.12$  3.13$
|631>   Q  0.6645  8.74$  5.89$  5.78$
|632>   Q  0.6645  9.13$  7.33$  6.07$
|633>   Q  -1.3290  9.26$  6.48$  6.07$
|634>   Q  0.6645  7.48$  8.62$  21.56$
|635>   Q  0.6645  8.12$  9.02$  20.27$
|636>   Q  -1.3290  8.09$  8.65$  21.01$
|637> *
|638> 
|639>                          ****END OF INPUT****
================================================================================

                     *******************************
                     * Energy+Gradient Calculation *
                     *******************************

---------------------------------
CARTESIAN COORDINATES (ANGSTROEM)
---------------------------------
  C      9.800000   10.630000    9.770000
  H      8.960000   11.120000    9.350000
  H      9.710000   10.450000   10.810000
  C     11.100000   11.280000    9.560000
  H     11.890000   10.540000    9.560000
  H     11.220000   11.750000    8.620000
  C     11.440000   12.240000   10.670000
  H     10.660000   12.940000   10.930000
  H     12.340000   12.830000   10.330000
  C     11.880000   11.500000   11.900000
  H     12.900000   11.230000   11.710000
  H     11.300000   10.570000   12.050000
  O     11.890000   12.290000   13.070000
  H     10.940000   12.570000   13.250000
  O      9.890000    9.390000    9.130000
  H      9.090000    8.920000    9.110000
  O      7.550000    9.880000   12.450000
  H      8.120000   10.620000   12.680000
  H      8.170000    9.160000   12.360000
  O     12.300000   16.110000   10.290000
  H     12.770000   16.870000   10.530000
  H     12.960000   15.410000   10.630000
  O     13.460000    8.270000   10.230000
  H     12.540000    7.940000   10.320000
  H     13.880000    7.570000    9.830000
  O     14.360000   14.360000   11.640000
  H     14.660000   13.460000   11.480000
  H     13.930000   14.510000   12.520000
  O      9.920000   16.000000   12.000000
  H      9.240000   15.360000   11.950000
  H     10.690000   15.740000   11.400000
  O      5.490000   11.280000   10.920000
  H      4.780000   11.040000   11.490000
  H      6.350000   11.070000   11.390000
  O     15.120000    5.890000    9.410000
  H     14.520000    5.250000    9.790000
  H     15.710000    5.320000    8.890000
  O      8.670000   12.620000   12.900000
  H      8.140000   13.420000   12.780000
  H      8.740000   12.610000   13.890000
  O      6.700000   10.850000    8.350000
  H      5.920000   10.880000    7.800000
  H      6.400000   10.970000    9.290000
  O      8.380000   12.710000    7.130000
  H      8.060000   12.810000    6.250000
  H      7.860000   11.930000    7.490000
  O     15.000000   11.630000   10.630000
  H     14.560000   11.600000    9.720000
  H     15.620000   10.940000   10.670000
  O      8.140000   17.790000   13.590000
  H      8.190000   17.150000   12.880000
  H      7.770000   17.320000   14.370000
  O     12.600000   13.300000    5.770000
  H     12.320000   14.240000    5.960000
  H     13.050000   12.860000    6.520000
  O     13.880000   12.610000   14.830000
  H     13.090000   12.230000   14.420000
  H     13.720000   12.540000   15.780000
  O     14.210000   12.310000    7.840000
  H     15.070000   12.220000    7.390000
  H     14.290000   13.170000    8.240000
  O     12.010000   15.790000    7.060000
  H     12.010000   16.750000    6.950000
  H     12.590000   15.750000    7.880000
  O     11.340000   17.020000   14.340000
  H     10.680000   16.770000   13.640000
  H     12.070000   17.210000   13.770000
  O      9.030000    7.740000   12.400000
  H      9.760000    7.820000   13.010000
  H      8.410000    7.070000   12.850000
  O      5.460000    7.830000   11.750000
  H      6.310000    8.340000   11.640000
  H      5.520000    7.340000   12.580000
  O     10.720000    9.040000    6.540000
  H     10.640000    9.260000    7.480000
  H     11.340000    8.330000    6.380000
  O      9.720000   18.050000    9.660000
  H      9.840000   17.210000   10.130000
  H      8.970000   17.930000    9.140000
  O     13.620000   17.790000   12.210000
  H     13.450000   18.710000   12.440000
  H     14.570000   17.670000   12.410000
  O     10.800000    6.510000   10.660000
  H     10.730000    6.730000    9.750000
  H     10.020000    7.000000   11.170000
  O     11.300000    7.920000   14.080000
  H     11.290000    8.840000   14.380000
  H     12.200000    7.850000   13.660000
  O      7.450000    7.800000    8.220000
  H      7.700000    6.990000    7.740000
  H      7.690000    8.560000    7.700000
  O      7.200000   15.090000   12.230000
  H      6.680000   15.330000   11.380000
  H      6.650000   15.300000   13.010000
  O      6.250000    9.760000   14.850000
  H      6.940000    9.330000   15.360000
  H      6.410000    9.590000   13.870000
  O     13.150000    7.230000    7.090000
  H     13.930000    7.700000    7.470000
  H     12.720000    6.770000    7.780000
  O     13.840000    7.740000   13.000000
  H     14.680000    7.310000   12.800000
  H     13.650000    8.280000   12.170000
  Q     19.400000   11.970000    8.600000
  Q     20.670000   12.200000    9.370000
  Q     20.080000   12.410000    8.810000
  Q      3.600000    8.710000    5.810000
  Q      4.960000    9.130000    5.280000
  Q      4.390000    8.570000    5.520000
  Q      9.080000   16.260000   20.910000
  Q      7.650000   16.670000   20.290000
  Q      8.480000   16.430000   20.310000
  Q     16.270000   10.230000    3.960000
  Q     14.800000    9.930000    3.910000
  Q     15.480000   10.260000    4.240000
  Q     11.180000   19.460000    4.470000
  Q     11.980000   18.300000    3.870000
  Q     11.270000   18.720000    4.070000
  Q     13.380000    7.770000    3.840000
  Q     13.390000    6.980000    5.260000
  Q     13.330000    7.090000    4.390000
  Q     19.760000    7.630000   14.790000
  Q     18.830000    8.690000   14.130000
  Q     19.400000    8.390000   14.680000
  Q      8.170000   15.100000    2.190000
  Q      9.110000   15.440000    3.300000
  Q      8.820000   14.940000    2.690000
  Q      3.950000    3.500000   13.720000
  Q      4.230000    4.420000   12.510000
  Q      4.010000    4.230000   13.320000
  Q      1.730000    8.670000    7.510000
  Q      1.490000    9.220000    6.000000
  Q      1.850000    8.750000    6.640000
  Q     17.900000   10.550000    6.900000
  Q     19.110000   10.520000    6.190000
  Q     18.680000   10.410000    6.830000
  Q     16.540000    9.840000    8.580000
  Q     17.800000   10.240000    9.340000
  Q     17.030000    9.910000    9.260000
  Q      6.420000   13.790000   16.790000
  Q      5.740000   14.480000   15.720000
  Q      6.000000   14.410000   16.510000
  Q      5.170000    1.230000   10.900000
  Q      6.300000    2.280000   10.900000
  Q      5.620000    1.900000   10.600000
  Q     21.510000   10.970000   13.370000
  Q     20.750000    9.860000   14.350000
  Q     21.300000   10.510000   14.120000
  Q      4.070000    7.240000    4.080000
  Q      4.200000    6.810000    2.570000
  Q      3.830000    6.860000    3.330000
  Q      0.840000    6.190000   13.400000
  Q      2.330000    5.850000   13.710000
  Q      1.680000    6.360000   13.510000
  Q     14.990000   11.650000    1.660000
  Q     15.020000   10.970000    0.240000
  Q     14.670000   11.250000    0.980000
  Q      8.570000   12.260000   16.390000
  Q      9.570000   13.450000   16.050000
  Q      9.110000   12.730000   15.910000
  Q     20.130000    7.700000    9.180000
  Q     20.010000    7.440000   10.660000
  Q     20.390000    7.760000    9.970000
  Q      6.370000   16.930000    9.270000
  Q      5.450000   17.360000   10.370000
  Q      5.910000   16.800000    9.950000
  Q     17.020000   14.930000   10.070000
  Q     17.070000   16.360000    9.530000
  Q     16.990000   15.760000   10.140000
  Q     16.780000   17.690000   12.320000
  Q     16.240000   16.340000   12.060000
  Q     16.370000   17.000000   12.530000
  Q      4.420000    8.860000    8.550000
  Q      4.510000    9.860000    9.710000
  Q      4.260000    9.590000    8.950000
  Q     14.180000   10.390000   17.930000
  Q     12.900000   10.710000   18.680000
  Q     13.580000   10.890000   18.220000
  Q     17.570000   13.830000    3.190000
  Q     16.070000   13.950000    3.150000
  Q     16.850000   13.980000    2.840000
  Q     12.540000   13.730000    1.180000
  Q     13.240000   12.480000    0.720000
  Q     12.960000   13.280000    0.620000
  Q      3.410000    4.700000   10.210000
  Q      4.470000    3.560000   10.480000
  Q      4.180000    4.360000   10.530000
  Q     11.760000    8.930000   19.360000
  Q     11.370000    9.580000   20.560000
  Q     11.560000    9.580000   19.760000
  Q      5.980000   11.270000    1.410000
  Q      5.500000   10.480000    2.630000
  Q      5.400000   10.890000    1.900000
  Q      5.560000   18.940000    8.450000
  Q      5.930000   20.370000    8.710000
  Q      5.410000   19.720000    8.730000
  Q     15.600000   19.930000   11.590000
  Q     16.650000   20.090000   10.430000
  Q     16.220000   19.690000   11.060000
  Q     17.600000    7.780000    3.720000
  Q     16.950000    6.400000    3.850000
  Q     17.550000    6.950000    3.950000
  Q     16.650000    6.960000   14.450000
  Q     16.070000    5.720000   13.750000
  Q     16.340000    6.510000   13.800000
  Q      7.000000    5.210000    3.980000
  Q      6.860000    6.680000    4.200000
  Q      7.150000    5.910000    4.400000
  Q      7.390000   12.620000   18.560000
  Q      6.640000   11.340000   17.990000
  Q      7.250000   11.960000   18.030000
  Q     17.120000    8.780000   12.460000
  Q     17.810000    9.940000   12.070000
  Q     17.310000    9.540000   12.570000
  Q      2.620000   16.530000    6.350000
  Q      1.210000   17.190000    6.000000
  Q      1.960000   17.100000    6.420000
  Q      2.730000   13.310000    4.440000
  Q      1.270000   13.690000    4.720000
  Q      1.940000   13.200000    4.770000
  Q      5.410000   18.670000   14.670000
  Q      4.930000   18.540000   13.220000
  Q      4.920000   18.410000   14.030000
  Q      9.780000    3.090000    8.330000
  Q      9.990000    3.590000    9.790000
  Q     10.200000    3.150000    9.090000
  Q     16.360000    8.350000    6.780000
  Q     15.880000    9.680000    6.070000
  Q     16.010000    9.140000    6.740000
  Q     18.540000   18.630000   17.210000
  Q     18.240000   17.130000   17.150000
  Q     18.070000   17.920000   17.370000
  Q     11.530000   13.040000   20.960000
  Q     10.890000   11.820000   20.230000
  Q     10.940000   12.610000   20.540000
  Q     16.490000   11.220000   13.420000
  Q     15.600000   12.260000   14.420000
  Q     16.270000   11.970000   13.900000
  Q     11.470000   15.700000    1.610000
  Q     11.020000   14.840000    2.850000
  Q     11.570000   15.160000    2.260000
  Q      2.950000    9.840000   12.490000
  Q      3.260000   10.970000   13.500000
  Q      3.170000   10.620000   12.740000
  Q     15.670000   15.350000   17.260000
  Q     16.000000   14.800000   18.630000
  Q     15.510000   15.120000   18.050000
  Q     13.240000   16.470000    3.280000
  Q     14.240000   17.640000    3.200000
  Q     13.530000   17.220000    3.480000
  Q     12.290000   15.560000   19.130000
  Q     12.630000   17.060000   19.420000
  Q     12.450000   16.220000   19.620000
  Q      2.750000   12.180000    8.280000
  Q      2.430000   12.700000    6.920000
  Q      2.820000   12.710000    7.660000
  Q      2.430000    2.400000    9.010000
  Q      3.470000    1.990000    7.960000
  Q      2.690000    2.080000    8.280000
  Q     13.540000    9.810000    2.230000
  Q     12.640000    9.940000    3.450000
  Q     13.120000    9.530000    2.900000
  Q     12.480000    1.390000    7.580000
  Q     11.640000    1.690000    8.810000
  Q     12.270000    1.290000    8.370000
  Q     19.500000   16.870000   12.150000
  Q     18.520000   16.630000   11.080000
  Q     19.000000   17.100000   11.520000
  Q      6.750000    5.190000    6.410000
  Q      6.040000    5.680000    7.650000
  Q      6.620000    5.230000    7.260000
  Q      5.150000    7.230000   14.630000
  Q      4.880000    5.770000   14.120000
  Q      5.340000    6.470000   14.270000
  Q      2.160000    8.690000    9.840000
  Q      0.640000    8.440000    9.730000
  Q      1.420000    8.590000    9.440000
  Q      1.240000   14.330000   11.960000
  Q      2.650000   14.290000   11.330000
  Q      2.080000   14.480000   11.930000
  Q     17.350000    6.540000    5.820000
  Q     16.950000    5.830000    7.140000
  Q     17.090000    6.510000    6.630000
  Q     12.320000    9.960000   16.440000
  Q     11.120000   10.910000   16.290000
  Q     11.600000   10.240000   16.100000
  Q     15.060000    9.320000   15.760000
  Q     14.150000    8.510000   14.800000
  Q     14.420000    8.800000   15.520000
  Q     15.810000   17.120000   14.590000
  Q     15.970000   17.500000   16.140000
  Q     15.720000   17.030000   15.430000
  Q     18.520000    5.720000   15.930000
  Q     18.840000    7.130000   16.440000
  Q     18.380000    6.440000   16.330000
  Q     14.250000   21.210000   12.900000
  Q     15.650000   22.030000   12.790000
  Q     14.930000   21.620000   12.510000
  Q     17.260000   15.550000   13.870000
  Q     17.000000   13.990000   13.750000
  Q     17.490000   14.700000   13.850000
  Q     22.140000   15.160000    8.160000
  Q     20.830000   14.300000    8.430000
  Q     21.330000   14.890000    8.070000
  Q     16.710000   17.790000    7.670000
  Q     18.070000   17.830000    8.380000
  Q     17.440000   17.480000    7.960000
  Q     18.440000   17.760000    6.100000
  Q     17.520000   18.330000    5.020000
  Q     18.140000   17.840000    5.330000
  Q      7.920000    5.210000   17.370000
  Q      8.640000    5.930000   18.620000
  Q      8.390000    5.790000   17.790000
  Q      6.510000   16.530000    5.420000
  Q      6.290000   14.960000    5.540000
  Q      6.270000   15.770000    5.760000
  Q     18.880000   14.570000    4.820000
  Q     19.360000   14.880000    3.510000
  Q     19.150000   14.350000    4.080000
  Q     11.670000    5.970000    3.830000
  Q     10.470000    5.420000    4.540000
  Q     10.970000    5.590000    3.840000
  Q      8.870000   14.810000    7.720000
  Q      9.930000   15.910000    7.790000
  Q      9.150000   15.610000    7.740000
  Q      2.460000    5.670000    7.900000
  Q      2.280000    6.790000    8.930000
  Q      2.370000    6.000000    8.680000
  Q     11.890000   20.210000   13.120000
  Q     12.950000   19.850000   14.230000
  Q     12.660000   20.070000   13.460000
  Q      9.950000    3.600000   13.610000
  Q     10.360000    3.910000   15.060000
  Q      9.810000    3.730000   14.440000
  Q      9.230000   16.140000    5.610000
  Q     10.040000   17.230000    4.750000
  Q      9.450000   16.590000    4.900000
  Q     13.590000    7.450000   18.910000
  Q     14.450000    7.540000   17.540000
  Q     14.300000    7.610000   18.380000
  Q     10.900000   15.420000   15.570000
  Q     11.510000   14.760000   16.800000
  Q     10.880000   15.070000   16.330000
  Q     17.010000    8.150000   18.400000
  Q     17.620000    9.130000   19.380000
  Q     17.550000    8.790000   18.610000
  Q      7.950000    2.340000    6.670000
  Q      7.910000    3.810000    7.140000
  Q      8.250000    3.050000    7.100000
  Q     10.140000    4.280000    2.450000
  Q      9.960000    3.810000    0.960000
  Q      9.820000    3.790000    1.830000
  Q      4.580000   15.510000   17.220000
  Q      3.150000   14.900000   17.300000
  Q      3.720000   15.530000   17.280000
  Q      9.230000    1.740000    9.740000
  Q      8.940000    1.230000   11.050000
  Q      8.780000    1.310000   10.280000
  Q      7.840000   21.830000    8.790000
  Q      8.140000   20.700000    7.790000
  Q      7.650000   21.270000    8.180000
  Q      9.260000    9.120000    5.670000
  Q      8.780000    8.470000    4.290000
  Q      8.710000    8.750000    5.110000
  Q     15.020000    3.230000   14.030000
  Q     14.320000    4.170000   13.020000
  Q     14.820000    3.960000   13.640000
  Q      4.660000   10.720000   15.150000
  Q      3.450000   11.260000   15.970000
  Q      4.010000   11.210000   15.310000
  Q      7.460000    0.210000    6.580000
  Q      7.130000    0.160000    4.970000
  Q      7.410000    0.530000    5.720000
  Q      5.870000    7.130000    8.860000
  Q      4.670000    6.280000    9.450000
  Q      5.090000    6.740000    8.880000
  Q     13.270000   18.310000   17.900000
  Q     14.350000   18.310000   19.070000
  Q     13.580000   18.360000   18.710000
  Q     11.640000   21.340000    8.140000
  Q     10.790000   20.650000    9.180000
  Q     11.170000   20.730000    8.440000
  Q      8.080000   14.390000   20.370000
  Q      9.200000   13.360000   20.440000
  Q      8.400000   13.600000   20.500000
  Q      1.490000    4.530000    5.810000
  Q      2.010000    3.630000    6.900000
  Q      1.950000    4.360000    6.480000
  Q      3.970000    4.950000    5.650000
  Q      4.000000    4.840000    4.080000
  Q      4.190000    4.640000    4.890000
  Q      3.810000    7.520000   16.740000
  Q      3.550000    8.790000   15.950000
  Q      4.020000    8.190000   16.310000
  Q      9.350000   19.360000   13.500000
  Q     10.100000   20.070000   14.700000
  Q      9.860000   19.950000   13.900000
  Q     10.220000    7.140000    2.660000
  Q     10.450000    8.630000    2.120000
  Q     10.040000    7.990000    2.500000
  Q      4.400000   15.260000    6.180000
  Q      3.360000   14.250000    6.070000
  Q      3.650000   14.990000    5.950000
  Q     10.710000   16.790000   17.520000
  Q      9.620000   16.940000   18.630000
  Q     10.090000   17.180000   17.930000
  Q     18.540000    5.020000   11.230000
  Q     18.190000    6.420000   11.610000
  Q     18.720000    5.780000   11.500000
  Q      6.460000   11.140000    4.550000
  Q      6.900000    9.690000    4.710000
  Q      6.420000   10.320000    4.420000
  Q     11.000000    4.830000    8.350000
  Q     10.250000    5.920000    7.340000
  Q     10.790000    5.590000    7.970000
  Q     11.980000    3.480000   16.280000
  Q     11.940000    4.980000   16.020000
  Q     12.200000    4.210000   15.910000
  Q      4.730000   15.280000   14.060000
  Q      5.370000   16.610000   13.830000
  Q      5.390000   15.790000   14.050000
  Q     15.160000   15.330000    9.130000
  Q     14.800000   15.570000    7.670000
  Q     14.840000   15.150000    8.400000
  Q      8.920000   20.190000    5.580000
  Q      9.920000   19.590000    6.460000
  Q      9.150000   19.690000    6.170000
  Q      6.780000   20.360000   12.210000
  Q      5.490000   20.850000   12.630000
  Q      6.310000   20.760000   12.720000
  Q     17.040000   12.710000    7.790000
  Q     16.910000   13.190000    6.240000
  Q     16.890000   12.630000    6.930000
  Q     14.440000   20.020000    5.430000
  Q     13.240000   20.130000    6.390000
  Q     13.760000   20.390000    5.780000
  Q      8.340000   11.680000    1.300000
  Q      7.620000   12.430000    0.040000
  Q      7.770000   11.820000    0.630000
  Q     14.550000   16.450000    5.560000
  Q     16.010000   16.610000    5.610000
  Q     15.270000   16.440000    5.940000
  Q     22.190000   11.990000   11.260000
  Q     20.980000   12.710000   12.070000
  Q     21.520000   12.070000   11.800000
  Q      1.790000   16.960000    8.360000
  Q      2.460000   15.860000    9.100000
  Q      1.810000   16.330000    8.890000
  Q      7.790000   18.730000    7.270000
  Q      7.800000   17.240000    7.570000
  Q      7.470000   18.020000    7.640000
  Q     18.710000   13.890000   12.470000
  Q     19.910000   14.520000   11.630000
  Q     19.340000   13.910000   11.890000
  Q      8.470000    5.090000   13.940000
  Q      7.130000    5.650000   13.900000
  Q      7.850000    5.450000   13.560000
  Q      3.850000    7.860000   11.590000
  Q      2.430000    7.470000   11.950000
  Q      2.990000    8.000000   11.620000
  Q     10.620000   19.440000   10.740000
  Q     12.140000   19.820000   10.470000
  Q     11.330000   19.920000   10.730000
  Q     19.900000    9.600000   10.310000
  Q     20.050000   11.030000   11.090000
  Q     19.640000   10.360000   10.690000
  Q      5.010000    9.720000   18.860000
  Q      4.770000    9.730000   17.360000
  Q      5.120000   10.020000   18.090000
  Q      2.280000   11.750000   10.980000
  Q      1.860000   10.710000    9.830000
  Q      1.930000   11.450000   10.260000
  Q      8.560000    8.730000   17.150000
  Q      8.000000    7.380000   16.830000
  Q      8.230000    8.190000   16.650000
  Q     10.110000   11.370000    3.060000
  Q      9.790000   12.700000    2.280000
  Q      9.780000   11.860000    2.420000
  Q      8.320000   17.000000   16.960000
  Q      7.180000   16.050000   16.530000
  Q      7.600000   16.790000   16.540000
  Q     12.660000   13.270000   18.320000
  Q     13.660000   14.410000   17.960000
  Q     12.890000   14.010000   17.980000
  Q     21.040000   11.800000   15.400000
  Q     21.130000   11.990000   16.880000
  Q     20.980000   12.270000   16.110000
  Q      7.810000    4.060000    1.750000
  Q      6.270000    3.810000    1.900000
  Q      7.000000    4.250000    1.910000
  Q     12.630000    5.020000   11.110000
  Q     13.120000    3.640000   10.610000
  Q     13.220000    4.410000   10.930000
  Q     18.410000   14.140000    7.340000
  Q     18.100000   15.540000    6.970000
  Q     18.440000   14.810000    6.850000
  Q      0.940000    9.980000    3.770000
  Q      1.270000   11.070000    4.880000
  Q      0.940000   10.340000    4.540000
  Q     16.710000   11.040000   15.790000
  Q     16.890000   10.120000   17.020000
  Q     16.460000   10.510000   16.400000
  Q     17.060000    8.180000   10.470000
  Q     16.340000    6.880000   10.830000
  Q     16.980000    7.470000   10.900000
  Q     10.310000   19.140000   17.260000
  Q      9.910000   20.640000   17.130000
  Q     10.310000   19.900000   16.920000
  Q     16.340000   11.130000   19.790000
  Q     14.810000   11.390000   19.930000
  Q     15.570000   11.090000   20.170000
  Q      4.450000   15.160000    9.730000
  Q      3.840000   13.940000    9.200000
  Q      3.840000   14.600000    9.700000
  Q     12.700000   20.630000   16.700000
  Q     14.040000   21.350000   16.690000
  Q     13.200000   21.280000   16.540000
  Q     18.970000   12.680000   16.200000
  Q     17.860000   13.300000   15.340000
  Q     18.240000   13.060000   16.080000
  Q      9.900000    9.770000    0.390000
  Q     10.870000   10.800000    0.830000
  Q     10.650000   10.060000    0.600000
  Q     11.820000   11.660000    4.940000
  Q     11.380000   10.210000    5.130000
  Q     11.500000   10.920000    4.690000
  Q      3.460000   18.700000   11.220000
  Q      4.540000   19.340000   10.430000
  Q      4.240000   18.850000   11.010000
  Q      7.890000    1.910000   13.320000
  Q      6.710000    0.930000   12.970000
  Q      7.070000    1.660000   13.260000
  Q     16.830000   12.580000   10.000000
  Q     18.310000   13.320000   10.100000
  Q     17.510000   13.130000    9.800000
  Q      7.460000   13.510000    4.150000
  Q      5.920000   13.390000    4.360000
  Q      6.740000   13.350000    4.610000
  Q     13.790000   18.040000   15.490000
  Q     12.300000   18.200000   15.600000
  Q     13.110000   18.420000   15.760000
  Q      4.240000   14.100000    2.820000
  Q      4.530000   12.600000    2.620000
  Q      4.380000   13.270000    3.070000
  Q     17.880000    4.050000    8.270000
  Q     16.620000    3.640000    7.620000
  Q     17.110000    4.220000    8.050000
  Q     19.010000   15.020000   15.960000
  Q     19.660000   16.330000   15.470000
  Q     19.350000   15.780000   16.050000
  Q      8.010000    7.700000    1.840000
  Q      7.080000    6.430000    1.480000
  Q      7.310000    7.250000    1.590000
  Q     17.380000   13.100000   19.020000
  Q     16.980000   12.190000   17.830000
  Q     17.230000   12.370000   18.630000
  Q     14.020000   12.920000    4.590000
  Q     15.340000   12.210000    4.360000
  Q     14.790000   12.830000    4.270000
  Q     13.270000   18.380000    7.830000
  Q     12.030000   19.240000    7.900000
  Q     12.560000   18.730000    7.500000
  Q     10.790000    7.080000   19.250000
  Q     11.560000    7.020000   17.850000
  Q     11.440000    7.220000   18.700000
  Q     10.120000    6.590000   16.550000
  Q     11.280000    7.070000   15.500000
  Q     10.920000    6.630000   16.150000
  Q     14.740000    2.290000    6.740000
  Q     16.150000    2.080000    6.010000
  Q     15.590000    2.250000    6.660000
  Q      3.190000   14.180000   13.560000
  Q      3.700000   13.300000   14.650000
  Q      3.470000   14.010000   14.350000
  Q     15.300000   18.920000    9.470000
  Q     15.330000   19.840000    8.320000
  Q     15.250000   19.100000    8.660000
  Q      5.480000    2.400000    8.360000
  Q      5.330000    3.250000    7.090000
  Q      5.250000    2.560000    7.550000
  Q      9.940000    9.640000   18.890000
  Q      8.600000   10.530000   18.660000
  Q      9.070000    9.780000   18.770000
  Q      9.870000    4.980000   11.210000
  Q      8.670000    4.410000   11.920000
  Q      9.380000    4.330000   11.460000
  Q     10.630000    1.320000   13.250000
  Q      9.710000    0.040000   13.190000
  Q      9.890000    0.870000   13.200000
  Q     12.220000    3.030000   14.120000
  Q     12.830000    2.670000   12.720000
  Q     12.310000    2.610000   13.370000
  Q      7.160000   18.840000   16.100000
  Q      7.120000   19.410000   14.750000
  Q      6.930000   19.410000   15.530000
  Q     19.390000    8.640000    7.320000
  Q     18.680000    7.420000    7.390000
  Q     19.360000    7.850000    7.450000
  Q      7.670000   17.680000    3.720000
  Q      6.290000   17.720000    2.960000
  Q      6.830000   17.630000    3.640000
  Q     14.580000    5.740000    3.360000
  Q     15.020000    4.280000    3.130000
  Q     15.100000    5.120000    3.130000
  Q      8.740000    5.890000    5.780000
  Q      9.130000    7.330000    6.070000
  Q      9.260000    6.480000    6.070000
  Q      7.480000    8.620000   21.560000
  Q      8.120000    9.020000   20.270000
  Q      8.090000    8.650000   21.010000

----------------------------
CARTESIAN COORDINATES (A.U.)
----------------------------
  NO LB      ZA    FRAG     MASS         X           Y           Z
   0 C     6.0000    0    12.011   18.519316   20.087789   18.462624
   1 H     1.0000    0     1.008   16.931946   21.013755   17.668939
   2 H     1.0000    0     1.008   18.349241   19.747638   20.427940
   3 C     6.0000    0    12.011   20.975960   21.316111   18.065782
   4 H     1.0000    0     1.008   22.468844   19.917713   18.065782
   5 H     1.0000    0     1.008   21.202727   22.204282   16.289439
   6 C     6.0000    0    12.011   21.618467   23.130248   20.163378
   7 H     1.0000    0     1.008   20.144481   24.453056   20.654707
   8 H     1.0000    0     1.008   23.319220   24.245186   19.520871
   9 C     6.0000    0    12.011   22.449946   21.731851   22.487741
  10 H     1.0000    0     1.008   24.377467   21.221624   22.128693
  11 H     1.0000    0     1.008   21.353905   19.974405   22.771200
  12 O     8.0000    0    15.999   22.468844   23.224734   24.698721
  13 H     1.0000    0     1.008   20.673604   23.753858   25.038871
  14 O     8.0000    0    15.999   18.689391   17.744528   17.253200
  15 H     1.0000    0     1.008   17.177611   16.856357   17.215405
  16 O     8.0000    0    15.999   14.267432   18.670494   23.527090
  17 H     1.0000    0     1.008   15.344576   20.068892   23.961727
  18 H     1.0000    0     1.008   15.439063   17.309891   23.357015
  19 O     8.0000    0    15.999   23.243631   30.443488   19.445282
  20 H     1.0000    0     1.008   24.131803   31.879680   19.898816
  21 H     1.0000    0     1.008   24.490851   29.120680   20.087789
  22 O     8.0000    0    15.999   25.435714   15.628035   19.331898
  23 H     1.0000    0     1.008   23.697166   15.004426   19.501974
  24 H     1.0000    0     1.008   26.229399   14.305227   18.576008
  25 O     8.0000    0    15.999   27.136467   27.136467   21.996412
  26 H     1.0000    0     1.008   27.703385   25.435714   21.694056
  27 H     1.0000    0     1.008   26.323885   27.419926   23.659371
  28 O     8.0000    0    15.999   18.746083   30.235618   22.676714
  29 H     1.0000    0     1.008   17.461069   29.026193   22.582227
  30 H     1.0000    0     1.008   20.201172   29.744289   21.542878
  31 O     8.0000    0    15.999   10.374596   21.316111   20.635809
  32 H     1.0000    0     1.008    9.032891   20.862577   21.712953
  33 H     1.0000    0     1.008   11.999761   20.919268   21.523981
  34 O     8.0000    0    15.999   28.572659   11.130487   17.782323
  35 H     1.0000    0     1.008   27.438823    9.921062   18.500419
  36 H     1.0000    0     1.008   29.687598   10.053343   16.799665
  37 O     8.0000    0    15.999   16.383926   23.848344   24.377467
  38 H     1.0000    0     1.008   15.382371   25.360125   24.150700
  39 H     1.0000    0     1.008   16.516206   23.829447   26.248296
  40 O     8.0000    0    15.999   12.661165   20.503529   15.779213
  41 H     1.0000    0     1.008   11.187179   20.560220   14.739864
  42 H     1.0000    0     1.008   12.094247   20.730296   17.555556
  43 O     8.0000    0    15.999   15.835905   24.018419   13.473747
  44 H     1.0000    0     1.008   15.231193   24.207392   11.810788
  45 H     1.0000    0     1.008   14.853247   22.544433   14.154049
  46 O     8.0000    0    15.999   28.345892   21.977515   20.087789
  47 H     1.0000    0     1.008   27.514413   21.920823   18.368138
  48 H     1.0000    0     1.008   29.517522   20.673604   20.163378
  49 O     8.0000    0    15.999   15.382371   33.618228   25.681378
  50 H     1.0000    0     1.008   15.476857   32.408803   24.339673
  51 H     1.0000    0     1.008   14.683172   32.730057   27.155365
  52 O     8.0000    0    15.999   23.810549   25.133358   10.903720
  53 H     1.0000    0     1.008   23.281426   26.909700   11.262768
  54 H     1.0000    0     1.008   24.660926   24.301878   12.321014
  55 O     8.0000    0    15.999   26.229399   23.829447   28.024639
  56 H     1.0000    0     1.008   24.736515   23.111351   27.249851
  57 H     1.0000    0     1.008   25.927043   23.697166   29.819878
  58 O     8.0000    0    15.999   26.853008   23.262529   14.815453
  59 H     1.0000    0     1.008   28.478173   23.092453   13.965076
  60 H     1.0000    0     1.008   27.004186   24.887693   15.571343
  61 O     8.0000    0    15.999   22.695611   29.838776   13.341467
  62 H     1.0000    0     1.008   22.695611   31.652913   13.133597
  63 H     1.0000    0     1.008   23.791652   29.763187   14.891042
  64 O     8.0000    0    15.999   21.429494   32.163139   27.098673
  65 H     1.0000    0     1.008   20.182275   31.690707   25.775864
  66 H     1.0000    0     1.008   22.808994   32.522187   26.021529
  67 O     8.0000    0    15.999   17.064227   14.626480   23.432604
  68 H     1.0000    0     1.008   18.443727   14.777658   24.585337
  69 H     1.0000    0     1.008   15.892597   13.360364   24.282981
  70 O     8.0000    0    15.999   10.317905   14.796556   22.204282
  71 H     1.0000    0     1.008   11.924172   15.760316   21.996412
  72 H     1.0000    0     1.008   10.431288   13.870590   23.772755
  73 O     8.0000    0    15.999   20.257864   17.083124   12.358809
  74 H     1.0000    0     1.008   20.106686   17.498864   14.135151
  75 H     1.0000    0     1.008   21.429494   15.741419   12.056453
  76 O     8.0000    0    15.999   18.368138   34.109557   18.254754
  77 H     1.0000    0     1.008   18.594905   32.522187   19.142926
  78 H     1.0000    0     1.008   16.950843   33.882790   17.272097
  79 O     8.0000    0    15.999   25.738070   33.618228   23.073556
  80 H     1.0000    0     1.008   25.416817   35.356776   23.508193
  81 H     1.0000    0     1.008   27.533310   33.391461   23.451501
  82 O     8.0000    0    15.999   20.409042   12.302117   20.144481
  83 H     1.0000    0     1.008   20.276761   12.717857   18.424830
  84 H     1.0000    0     1.008   18.935056   13.228083   21.108241
  85 O     8.0000    0    15.999   21.353905   14.966631   26.607344
  86 H     1.0000    0     1.008   21.335008   16.705179   27.174262
  87 H     1.0000    0     1.008   23.054659   14.834350   25.813659
  88 O     8.0000    0    15.999   14.078460   14.739864   15.533549
  89 H     1.0000    0     1.008   14.550891   13.209186   14.626480
  90 H     1.0000    0     1.008   14.531994   16.176056   14.550891
  91 O     8.0000    0    15.999   13.606028   28.515967   23.111351
  92 H     1.0000    0     1.008   12.623371   28.969502   21.505083
  93 H     1.0000    0     1.008   12.566679   28.912810   24.585337
  94 O     8.0000    0    15.999   11.810788   18.443727   28.062433
  95 H     1.0000    0     1.008   13.114699   17.631145   29.026193
  96 H     1.0000    0     1.008   12.113145   18.122474   26.210501
  97 O     8.0000    0    15.999   24.849899   13.662720   13.398158
  98 H     1.0000    0     1.008   26.323885   14.550891   14.116254
  99 H     1.0000    0     1.008   24.037316   12.793446   14.702069
 100 O     8.0000    0    15.999   26.153810   14.626480   24.566440
 101 H     1.0000    0     1.008   27.741180   13.813898   24.188495
 102 H     1.0000    0     1.008   25.794762   15.646932   22.997967
 103 Q     0.6645    0     0.000   36.660687   22.620022   16.251645
 104 Q     0.6645    0     0.000   39.060639   23.054659   17.706734
 105 Q    -1.3290    0     0.000   37.945701   23.451501   16.648487
 106 Q     0.6645    0     0.000    6.803014   16.459515   10.979309
 107 Q     0.6645    0     0.000    9.373042   17.253200    9.977754
 108 Q    -1.3290    0     0.000    8.295898   16.194953   10.431288
 109 Q     0.6645    0     0.000   17.158713   30.726947   39.514173
 110 Q     0.6645    0     0.000   14.456405   31.501735   38.342543
 111 Q    -1.3290    0     0.000   16.024878   31.048200   38.380338
 112 Q     0.6645    0     0.000   30.745844   19.331898    7.483315
 113 Q     0.6645    0     0.000   27.967947   18.764981    7.388829
 114 Q    -1.3290    0     0.000   29.252961   19.388590    8.012439
 115 Q     0.6645    0     0.000   21.127138   36.774071    8.447076
 116 Q     0.6645    0     0.000   22.638919   34.581988    7.313240
 117 Q    -1.3290    0     0.000   21.297214   35.375673    7.691185
 118 Q     0.6645    0     0.000   25.284536   14.683172    7.256548
 119 Q     0.6645    0     0.000   25.303433   13.190288    9.939959
 120 Q    -1.3290    0     0.000   25.190049   13.398158    8.295898
 121 Q     0.6645    0     0.000   37.340988   14.418610   27.949050
 122 Q     0.6645    0     0.000   35.583543   16.421720   26.701830
 123 Q    -1.3290    0     0.000   36.660687   15.854802   27.741180
 124 Q     0.6645    0     0.000   15.439063   28.534865    4.138500
 125 Q     0.6645    0     0.000   17.215405   29.177372    6.236096
 126 Q    -1.3290    0     0.000   16.667385   28.232508    5.083363
 127 Q     0.6645    0     0.000    7.464418    6.614041   25.927043
 128 Q     0.6645    0     0.000    7.993542    8.352590   23.640474
 129 Q    -1.3290    0     0.000    7.577802    7.993542   25.171152
 130 Q     0.6645    0     0.000    3.269226   16.383926   14.191843
 131 Q     0.6645    0     0.000    2.815692   17.423275   11.338357
 132 Q    -1.3290    0     0.000    3.495993   16.535104   12.547782
 133 Q     0.6645    0     0.000   33.826098   19.936611   13.039110
 134 Q     0.6645    0     0.000   36.112666   19.879919   11.697405
 135 Q    -1.3290    0     0.000   35.300084   19.672049   12.906829
 136 Q     0.6645    0     0.000   31.256070   18.594905   16.213850
 137 Q     0.6645    0     0.000   33.637125   19.350796   17.650042
 138 Q    -1.3290    0     0.000   32.182036   18.727186   17.498864
 139 Q     0.6645    0     0.000   12.132042   26.059323   31.728502
 140 Q     0.6645    0     0.000   10.847028   27.363234   29.706495
 141 Q    -1.3290    0     0.000   11.338357   27.230954   31.199378
 142 Q     0.6645    0     0.000    9.769884    2.324363   20.598015
 143 Q     0.6645    0     0.000   11.905275    4.308576   20.598015
 144 Q    -1.3290    0     0.000   10.620261    3.590480   20.031097
 145 Q     0.6645    0     0.000   40.648009   20.730296   25.265638
 146 Q     0.6645    0     0.000   39.211817   18.632700   27.117570
 147 Q    -1.3290    0     0.000   40.251167   19.861022   26.682933
 148 Q     0.6645    0     0.000    7.691185   13.681617    7.710083
 149 Q     0.6645    0     0.000    7.936850   12.869035    4.856596
 150 Q    -1.3290    0     0.000    7.237651   12.963521    6.292788
 151 Q     0.6645    0     0.000    1.587370   11.697405   25.322330
 152 Q     0.6645    0     0.000    4.403062   11.054898   25.908145
 153 Q    -1.3290    0     0.000    3.174740   12.018658   25.530200
 154 Q     0.6645    0     0.000   28.326995   22.015309    3.136945
 155 Q     0.6645    0     0.000   28.383687   20.730296    0.453534
 156 Q    -1.3290    0     0.000   27.722282   21.259419    1.851932
 157 Q     0.6645    0     0.000   16.194953   23.168042   30.972611
 158 Q     0.6645    0     0.000   18.084679   25.416817   30.330104
 159 Q    -1.3290    0     0.000   17.215405   24.056214   30.065543
 160 Q     0.6645    0     0.000   38.040187   14.550891   17.347686
 161 Q     0.6645    0     0.000   37.813420   14.059562   20.144481
 162 Q    -1.3290    0     0.000   38.531516   14.664275   18.840570
 163 Q     0.6645    0     0.000   12.037555   31.993063   17.517761
 164 Q     0.6645    0     0.000   10.299007   32.805646   19.596460
 165 Q    -1.3290    0     0.000   11.168281   31.747399   18.802775
 166 Q     0.6645    0     0.000   32.163139   28.213611   19.029542
 167 Q     0.6645    0     0.000   32.257625   30.915920   18.009090
 168 Q    -1.3290    0     0.000   32.106447   29.782084   19.161823
 169 Q     0.6645    0     0.000   31.709605   33.429255   23.281426
 170 Q     0.6645    0     0.000   30.689152   30.878125   22.790097
 171 Q    -1.3290    0     0.000   30.934817   32.125344   23.678268
 172 Q     0.6645    0     0.000    8.352590   16.742974   16.157158
 173 Q     0.6645    0     0.000    8.522665   18.632700   18.349241
 174 Q    -1.3290    0     0.000    8.050233   18.122474   16.913049
 175 Q     0.6645    0     0.000   26.796317   19.634255   33.882790
 176 Q     0.6645    0     0.000   24.377467   20.238967   35.300084
 177 Q    -1.3290    0     0.000   25.662481   20.579118   34.430810
 178 Q     0.6645    0     0.000   33.202488   26.134912    6.028226
 179 Q     0.6645    0     0.000   30.367899   26.361680    5.952637
 180 Q    -1.3290    0     0.000   31.841885   26.418371    5.366822
 181 Q     0.6645    0     0.000   23.697166   25.945940    2.229877
 182 Q     0.6645    0     0.000   25.019974   23.583782    1.360603
 183 Q    -1.3290    0     0.000   24.490851   25.095563    1.171630
 184 Q     0.6645    0     0.000    6.443966    8.881713   19.294104
 185 Q     0.6645    0     0.000    8.447076    6.727425   19.804330
 186 Q    -1.3290    0     0.000    7.899055    8.239206   19.898816
 187 Q     0.6645    0     0.000   22.223179   16.875254   36.585098
 188 Q     0.6645    0     0.000   21.486186   18.103576   38.852769
 189 Q    -1.3290    0     0.000   21.845234   18.103576   37.340988
 190 Q     0.6645    0     0.000   11.300562   21.297214    2.664514
 191 Q     0.6645    0     0.000   10.393494   19.804330    4.969980
 192 Q    -1.3290    0     0.000   10.204521   20.579118    3.590480
 193 Q     0.6645    0     0.000   10.506877   35.791413   15.968186
 194 Q     0.6645    0     0.000   11.206076   38.493721   16.459515
 195 Q    -1.3290    0     0.000   10.223418   37.265399   16.497309
 196 Q     0.6645    0     0.000   29.479728   37.662242   21.901926
 197 Q     0.6645    0     0.000   31.463940   37.964598   19.709844
 198 Q    -1.3290    0     0.000   30.651358   37.208708   20.900371
 199 Q     0.6645    0     0.000   33.259180   14.702069    7.029781
 200 Q     0.6645    0     0.000   32.030858   12.094247    7.275446
 201 Q    -1.3290    0     0.000   33.164694   13.133597    7.464418
 202 Q     0.6645    0     0.000   31.463940   13.152494   27.306543
 203 Q     0.6645    0     0.000   30.367899   10.809233   25.983734
 204 Q    -1.3290    0     0.000   30.878125   12.302117   26.078221
 205 Q     0.6645    0     0.000   13.228083    9.845473    7.521110
 206 Q     0.6645    0     0.000   12.963521   12.623371    7.936850
 207 Q    -1.3290    0     0.000   13.511542   11.168281    8.314795
 208 Q     0.6645    0     0.000   13.965076   23.848344   35.073317
 209 Q     0.6645    0     0.000   12.547782   21.429494   33.996173
 210 Q    -1.3290    0     0.000   13.700514   22.601125   34.071762
 211 Q     0.6645    0     0.000   32.352111   16.591795   23.545988
 212 Q     0.6645    0     0.000   33.656022   18.783878   22.808994
 213 Q    -1.3290    0     0.000   32.711159   18.027987   23.753858
 214 Q     0.6645    0     0.000    4.951082   31.237173   11.999761
 215 Q     0.6645    0     0.000    2.286569   32.484392   11.338357
 216 Q    -1.3290    0     0.000    3.703863   32.314317   12.132042
 217 Q     0.6645    0     0.000    5.158952   25.152255    8.390384
 218 Q     0.6645    0     0.000    2.399952   25.870351    8.919507
 219 Q    -1.3290    0     0.000    3.666069   24.944385    9.013994
 220 Q     0.6645    0     0.000   10.223418   35.281187   27.722282
 221 Q     0.6645    0     0.000    9.316350   35.035523   24.982179
 222 Q    -1.3290    0     0.000    9.297453   34.789858   26.512858
 223 Q     0.6645    0     0.000   18.481522    5.839254   15.741419
 224 Q     0.6645    0     0.000   18.878364    6.784117   18.500419
 225 Q    -1.3290    0     0.000   19.275207    5.952637   17.177611
 226 Q     0.6645    0     0.000   30.915920   15.779213   12.812343
 227 Q     0.6645    0     0.000   30.008851   18.292549   11.470638
 228 Q    -1.3290    0     0.000   30.254515   17.272097   12.736754
 229 Q     0.6645    0     0.000   35.035523   35.205598   32.522187
 230 Q     0.6645    0     0.000   34.468605   32.371009   32.408803
 231 Q    -1.3290    0     0.000   34.147351   33.863892   32.824543
 232 Q     0.6645    0     0.000   21.788542   24.642029   39.608660
[...]
 320   Q   :    0.277128348    0.152731812    0.004980970
 321   Q   :   -0.138184848   -0.052197989    0.211670757
 322   Q   :   -0.139014003   -0.110321847   -0.210443630
 323   Q   :   -0.075338139   -0.261630519   -0.006779352
 324   Q   :    0.272552243    0.098254645    0.015343163
 325   Q   :   -0.196604185    0.160136536   -0.000598490
 326   Q   :    0.035615052   -0.090876191   -0.249477774
 327   Q   :   -0.027690216    0.281531688    0.082710767
 328   Q   :   -0.004269993   -0.181797138    0.163338390
 329   Q   :   -0.235648208    0.039067603   -0.105313731
 330   Q   :    0.099059209   -0.076475464    0.243700617
 331   Q   :    0.126468545    0.046527081   -0.135843421
 332   Q   :    0.058572068   -0.034888420   -0.267696936
 333   Q   :    0.196119955    0.057732297    0.203400657
 334   Q   :   -0.253810267   -0.036337354    0.073089049
 335   Q   :   -0.056519248   -0.136066651    0.218838551
 336   Q   :    0.171196076    0.175241204   -0.030017779
 337   Q   :   -0.114307471   -0.039560344   -0.174245522
 338   Q   :   -0.204156790   -0.046643477    0.142387276
 339   Q   :    0.038459151   -0.032118117   -0.276908926
 340   Q   :    0.170135840    0.076022252    0.141789642
 341   Q   :    0.017125784    0.109562102   -0.262564119
 342   Q   :    0.209986653   -0.094644773    0.140824565
 343   Q   :   -0.236497944   -0.012031520    0.115102613
 344   Q   :   -0.175998980   -0.201333459   -0.050698635
 345   Q   :    0.012106728    0.107732389    0.275049645
 346   Q   :    0.169662165    0.089660239   -0.217586811
 347   Q   :   -0.090977787   -0.192168201   -0.122950964
 348   Q   :   -0.117202612    0.263514707   -0.004527297
 349   Q   :    0.205657153   -0.072703299    0.117743834
 350   Q   :    0.106984415    0.165499672    0.185376693
 351   Q   :    0.047498993    0.019260579   -0.266586038
 352   Q   :   -0.149083183   -0.193328330    0.078176663
 353   Q   :    0.267925252   -0.016932146   -0.008737016
 354   Q   :   -0.189368213   -0.236879666    0.013361798
 355   Q   :   -0.086059839    0.258953585   -0.001226419
 356   Q   :    0.173846475    0.152008704   -0.178482273
 357   Q   :    0.082361430   -0.024889750    0.326149434
 358   Q   :   -0.262429751   -0.135389352   -0.150112453
 359   Q   :    0.081437001    0.184212731    0.210336598
 360   Q   :    0.177868347   -0.190966005   -0.118249825
 361   Q   :   -0.255492460    0.011459857   -0.093125805
 362   Q   :    0.156552305    0.107752601    0.162652396
 363   Q   :    0.020563464   -0.083678913   -0.246463348
 364   Q   :   -0.191114143   -0.015776522    0.075127388
 365   Q   :    0.060292618   -0.258602545    0.119277221
 366   Q   :   -0.190886702    0.057578910   -0.233660013
 367   Q   :    0.125070034    0.191692573    0.119925027
 368   Q   :    0.206053700   -0.179842022   -0.042782267
 369   Q   :   -0.177704612   -0.002903233    0.215912814
 370   Q   :   -0.033056076    0.182479955   -0.162280782
 371   Q   :    0.011703687   -0.097533554    0.225118054
 372   Q   :   -0.088394311   -0.130291186   -0.225413346
 373   Q   :    0.073128638    0.220370279   -0.006436327
 374   Q   :    0.233891231    0.104625173    0.004513040
 375   Q   :   -0.132401008   -0.153227831    0.203335846
 376   Q   :   -0.118199553    0.046191993   -0.197047459
 377   Q   :   -0.085271845   -0.024194013   -0.247537813
 378   Q   :    0.268599815   -0.019395950    0.110159366
 379   Q   :   -0.173506347    0.055929407    0.140849641
 380   Q   :    0.178117950    0.228456214   -0.103033858
 381   Q   :   -0.129878140   -0.008768278    0.238808456
 382   Q   :   -0.064798547   -0.201798352   -0.139966003
 383   Q   :   -0.093330785    0.254177799   -0.045984639
 384   Q   :    0.268245023   -0.061347512   -0.030855298
 385   Q   :   -0.187422971   -0.192427174    0.083070477
 386   Q   :   -0.178159926    0.044895052   -0.245412664
 387   Q   :    0.004818641   -0.246665131    0.128829615
 388   Q   :    0.161687422    0.198321981    0.104500783
 389   Q   :   -0.070475068    0.116060700    0.254501125
 390   Q   :   -0.066206215    0.063670189   -0.268921034
 391   Q   :    0.140411870   -0.185765892    0.014111569
 392   Q   :   -0.097728970   -0.247148795    0.162658575
 393   Q   :   -0.176895071    0.204598867   -0.110011133
 394   Q   :    0.275412292    0.038871058   -0.050219730
 395   Q   :   -0.150355400   -0.179730721   -0.118876381
 396   Q   :    0.080827287    0.032242026    0.272807241
 397   Q   :    0.065413668    0.154571241   -0.159756125
 398   Q   :    0.058152580   -0.244114560    0.035453600
 399   Q   :    0.140153971    0.202079496   -0.123459235
 400   Q   :   -0.190735072    0.042566397    0.085101346
 401   Q   :    0.258170991    0.071612057    0.088770510
 402   Q   :   -0.096655873   -0.302166950    0.045211438
 403   Q   :   -0.162880584    0.214602225   -0.137755444
 404   Q   :    0.221189083   -0.136510755   -0.131091093
 405   Q   :   -0.134318207   -0.080757437    0.197931718
 406   Q   :   -0.071110382    0.216942375   -0.064858291
 407   Q   :   -0.086198858   -0.286407806   -0.105342119
 408   Q   :   -0.177256115    0.196784182    0.041129346
 409   Q   :    0.272966467    0.072758057    0.072152947
 410   Q   :    0.022151993    0.288270765    0.055108339
 411   Q   :    0.155268900   -0.202626328    0.106297786
 412   Q   :   -0.178967447   -0.084216605   -0.161237600
 413   Q   :    0.067501803   -0.231429868    0.113114493
 414   Q   :   -0.139739753    0.077371192   -0.157131948
 415   Q   :    0.080074644    0.144971452    0.050690325
 416   Q   :   -0.096111092   -0.247207806    0.126733655
 417   Q   :   -0.108875409    0.261112551    0.049630643
 418   Q   :    0.220102721   -0.015249832   -0.172713152
 419   Q   :   -0.216095026   -0.164177825   -0.013712536
 420   Q   :   -0.003660197    0.247604292   -0.091318638
 421   Q   :    0.219182904   -0.075360699    0.103852983
 422   Q   :    0.124259817    0.080659050    0.269966925
 423   Q   :   -0.016907595    0.149496931   -0.227450430
 424   Q   :   -0.110014882   -0.224813775   -0.034821562
 425   Q   :   -0.068334625    0.207613719   -0.235040264
 426   Q   :    0.282807104   -0.020662924    0.086934338
 427   Q   :   -0.204607490   -0.187220190    0.130538679
 428   Q   :    0.174031646   -0.171779028   -0.228999865
 429   Q   :   -0.299117282    0.020097035   -0.057389504
 430   Q   :    0.125456508    0.155161586    0.286580077
 431   Q   :    0.045106172    0.030431231    0.252511743
 432   Q   :    0.005885344    0.166154722   -0.192298155
 433   Q   :   -0.044797696   -0.195836188   -0.075471468
 434   Q   :    0.240156704   -0.142843961   -0.110470141
 435   Q   :   -0.165573803   -0.088124160    0.209878967
 436   Q   :   -0.068624857    0.242850765   -0.104858369
 437   Q   :    0.150852121   -0.023876209    0.178068697
 438   Q   :   -0.044508437    0.215692656   -0.189951818
 439   Q   :   -0.110772823   -0.189665226   -0.002292088
 440   Q   :   -0.263544984    0.010936087   -0.155772716
 441   Q   :    0.258793569    0.073182906   -0.135446264
 442   Q   :    0.006781059   -0.081089055    0.283711387
 443   Q   :    0.209978962   -0.012764429   -0.183749060
 444   Q   :   -0.145273248    0.191849404    0.068639866
 445   Q   :   -0.046901522   -0.171197640    0.110317530
 446   Q   :    0.010488618    0.235858618   -0.184457615
 447   Q   :    0.245712862   -0.149111683    0.059444562
 448   Q   :   -0.259371261   -0.078877648    0.131649759
 449   Q   :    0.109773106    0.216276530   -0.107668545
 450   Q   :    0.120377029   -0.241422256   -0.022340322
 451   Q   :   -0.238516334    0.036051676    0.129571919
 452   Q   :   -0.192727125   -0.001300878    0.178512407
 453   Q   :    0.179480133    0.196152166   -0.073984238
 454   Q   :    0.009567422   -0.196212708   -0.103519929
 455   Q   :    0.222260782   -0.123700876    0.151356877
 456   Q   :   -0.243099651    0.065157457    0.138195580
 457   Q   :    0.014924133    0.050871853   -0.285278044
 458   Q   :    0.235537183   -0.060104339    0.001788367
 459   Q   :   -0.182618624   -0.190613752    0.108003775
 460   Q   :   -0.057496100    0.237366701   -0.113489582
 461   Q   :   -0.217631255   -0.155078559   -0.003714340
 462   Q   :    0.273108510   -0.045790703   -0.097344406
 463   Q   :   -0.045894349    0.201484515    0.116569005
 464   Q   :    0.073644162   -0.199452653   -0.109010063
 465   Q   :    0.122447487    0.197648440    0.107407987
 466   Q   :   -0.200691011    0.010755089   -0.001774896
 467   Q   :   -0.051482378   -0.121939856    0.277134755
 468   Q   :   -0.127889767   -0.092294522   -0.218442657
 469   Q   :    0.167189882    0.215116520   -0.055712256
 470   Q   :    0.121104912    0.093983782    0.237767015
 471   Q   :   -0.014708249   -0.247517577   -0.132808492
 472   Q   :   -0.109391913    0.160730616   -0.101970428
 473   Q   :    0.127551250    0.196206427    0.200396401
 474   Q   :   -0.071542557   -0.248873343    0.063059859
 475   Q   :   -0.056743992    0.053621933   -0.274355856
 476   Q   :    0.099548876   -0.135046532    0.191904627
 477   Q   :    0.009141124    0.280277566   -0.040909385
 478   Q   :   -0.101790658   -0.148308038   -0.144372737
 479   Q   :    0.220506590    0.054484985    0.138457817
 480   Q   :   -0.118128992   -0.246992570    0.005862790
 481   Q   :   -0.106197834    0.187032834   -0.138202172
 482   Q   :   -0.072762793   -0.252882788    0.121924788
 483   Q   :    0.223536551    0.107438051   -0.002686441
 484   Q   :   -0.152576732    0.130193057   -0.116404191
 485   Q   :    0.013666263   -0.151026654   -0.207202452
 486   Q   :    0.054684369   -0.120084326    0.276387460
 487   Q   :   -0.062613074    0.283943003   -0.057923777
 488   Q   :    0.256015738   -0.072337843   -0.062462578
 489   Q   :   -0.242488587   -0.159443618   -0.007654041
 490   Q   :   -0.023122345    0.225992287    0.062745253
 491   Q   :   -0.186502558    0.175176354    0.049743524
 492   Q   :   -0.046085889   -0.269628126   -0.109978886
 493   Q   :    0.229203071    0.090887679    0.066129022
 494   Q   :   -0.031632219   -0.234171952    0.188994121
 495   Q   :   -0.142272188    0.270993488    0.056995562
 496   Q   :    0.179923759   -0.037100177   -0.236639323
 497   Q   :    0.007582427   -0.113858708   -0.270202061
 498   Q   :    0.107506582    0.219612282    0.099439559
 499   Q   :   -0.122704517   -0.106477935    0.161534329
 500   Q   :    0.095606397    0.176872462   -0.197227972
 501   Q   :    0.147581087   -0.116312912    0.194004386
 502   Q   :   -0.239000362   -0.051443202    0.003029731
 503   Q   :    0.017890791    0.241792119   -0.147010759
 504   Q   :   -0.194608361   -0.167267617   -0.021372116
 505   Q   :    0.168123096   -0.074961085    0.167303176
 506   Q   :   -0.004728084   -0.257734848    0.128067076
 507   Q   :   -0.133283251    0.231177365    0.079356323
 508   Q   :    0.136734706    0.035626059   -0.203604326
 509   Q   :    0.239267049    0.005304096   -0.123369340
 510   Q   :   -0.255583884    0.111043911   -0.085734122
 511   Q   :    0.012016627   -0.124859067    0.221936954
 512   Q   :    0.223803525    0.186810120   -0.004733722
 513   Q   :    0.024967755   -0.228445604   -0.178846644
 514   Q   :   -0.239658832    0.033953209    0.182663168
 515   Q   :   -0.155400885   -0.238387878    0.065327202
 516   Q   :    0.290251860    0.006440841    0.055793679
 517   Q   :   -0.132443540    0.234536418   -0.119348472
 518   Q   :    0.250655421   -0.136530487    0.025520286
 519   Q   :   -0.108763628    0.068743254   -0.237437776
 520   Q   :   -0.148495907    0.060805548    0.216206716
 521   Q   :   -0.277341527   -0.093639356   -0.070379426
 522   Q   :    0.076872425    0.299619342    0.087342487
 523   Q   :    0.207285609   -0.201899145   -0.025709087
 524   Q   :    0.113102009    0.233671855    0.089273898
 525   Q   :   -0.023169801   -0.233224305    0.144964786
 526   Q   :   -0.089174243   -0.000618248   -0.232202574
 527   Q   :   -0.294607290   -0.043586896    0.069386385
 528   Q   :    0.095851998    0.183317612   -0.202942480
 529   Q   :    0.185226769   -0.134884300    0.145487285
 530   Q   :    0.262131336    0.070496910    0.007879828
 531   Q   :   -0.109709060   -0.247970319   -0.102218540
 532   Q   :   -0.157312613    0.180832802    0.094502894
 533   Q   :   -0.178101369   -0.153946959    0.052490874
 534   Q   :    0.233636361    0.055779442    0.087605291
 535   Q   :   -0.048748643    0.091567561   -0.140015703
 536   Q   :    0.214404886    0.051692497   -0.150707867
 537   Q   :   -0.246481550    0.022666108   -0.083268256
 538   Q   :    0.040380562   -0.075025187    0.238640722
 539   Q   :    0.240425842   -0.143386486   -0.111754128
 540   Q   :   -0.243901707   -0.079046358   -0.056394537
 541   Q   :    0.004731909    0.226835553    0.167809155
 542   Q   :   -0.038409950    0.249922196   -0.088985966
 543   Q   :    0.055027789   -0.222943678   -0.175219359
 544   Q   :   -0.022042677   -0.021225056    0.255170027
 545   Q   :    0.290215901   -0.082055805    0.074202373
 546   Q   :   -0.123607670   -0.167438921   -0.123234012
 547   Q   :   -0.147213868    0.241405150    0.058261788
 548   Q   :   -0.116906674   -0.253178076   -0.051731413
 549   Q   :    0.097649767    0.181571921   -0.209042917
 550   Q   :    0.028183626    0.069429637    0.254103282
 551   Q   :    0.221396810    0.130881575    0.081672066
 552   Q   :   -0.065803991   -0.268987562   -0.034206095
 553   Q   :   -0.162453896    0.145585161   -0.053658812
 554   Q   :    0.043463727    0.273606782    0.130349036
 555   Q   :   -0.087856368   -0.045790995   -0.253354479
 556   Q   :    0.044748047   -0.216172948    0.118784436
 557   Q   :   -0.253196917    0.010428810    0.109805379
 558   Q   :    0.195474039   -0.215933580    0.037934224
 559   Q   :    0.058660792    0.205862225   -0.147845233
 560   Q   :    0.220576375   -0.108626510    0.116847534
 561   Q   :   -0.155956009    0.163913827    0.140831205
 562   Q   :   -0.062230286   -0.073582371   -0.259202686
 563   Q   :   -0.219762292   -0.048883136    0.172375337
 564   Q   :    0.026614946   -0.060212032   -0.227969028
 565   Q   :    0.187998641    0.094737432    0.060771520
 566   Q   :   -0.220087866   -0.010150413    0.114449218
 567   Q   :    0.108725174    0.127874179   -0.184272148
 568   Q   :    0.108678643   -0.112778506    0.064298579
 569   Q   :   -0.288873959    0.014240708    0.011573801
 570   Q   :    0.165984203   -0.048931398   -0.210294888
 571   Q   :    0.113294507    0.024089227    0.194144744
 572   Q   :   -0.066515851    0.034048264   -0.247156231
 573   Q   :    0.092634866   -0.289097065    0.103749482
 574   Q   :   -0.030480740    0.251432796    0.157698427
 575   Q   :    0.016834333   -0.045901536    0.277434502
 576   Q   :    0.038037835    0.289256235   -0.113524725
 577   Q   :   -0.057366429   -0.241848324   -0.166822854
 578   Q   :    0.069756694   -0.038736782    0.262015533
 579   Q   :    0.031789951    0.254310279   -0.151133055
 580   Q   :   -0.093391954   -0.210409613   -0.123330238
 581   Q   :    0.240110489   -0.031434267    0.028539092
 582   Q   :   -0.119317973    0.210884261   -0.024840965
 583   Q   :   -0.116878672   -0.179348567   -0.005528976
 584   Q   :    0.146517792    0.209632621   -0.072388166
 585   Q   :   -0.225742067    0.036451900    0.151178620
 586   Q   :    0.070855843   -0.256736393   -0.072200824
 587   Q   :    0.229219786    0.121579494    0.013958935
 588   Q   :   -0.050963950   -0.291044131   -0.004919767
 589   Q   :   -0.178815397    0.161379487   -0.004191020
 590   Q   :   -0.025119618    0.131309263    0.229316096
 591   Q   :    0.198316977    0.031622418   -0.233493896
 592   Q   :   -0.167730398   -0.164475180   -0.000606062
 593   Q   :    0.087783601   -0.201384544    0.181791736
 594   Q   :    0.078883956   -0.028972760   -0.309343966
 595   Q   :   -0.161657382    0.242168569    0.134857990
 596   Q   :   -0.003914825    0.306624415   -0.051093009
 597   Q   :   -0.268289655   -0.144514958   -0.020760192
 598   Q   :    0.281063335   -0.167230934    0.063359278
 599   Q   :    0.288409488    0.020884261    0.003711017
 600   Q   :   -0.156405344    0.027596350   -0.229413793
 601   Q   :   -0.135343154   -0.042425723    0.216108856
 602   Q   :   -0.180524451    0.199008924    0.079683949
 603   Q   :   -0.041299917   -0.297758928    0.009409166
 604   Q   :    0.224192904    0.089123808   -0.097116151
 605   Q   :   -0.176706150   -0.204515653   -0.090485599
 606   Q   :   -0.047413118    0.248838115    0.015314713
 607   Q   :    0.221103620   -0.046169535    0.078720556
 608   Q   :   -0.248136730   -0.003052065    0.198509493
 609   Q   :   -0.018884927    0.133893541   -0.253828810
 610   Q   :    0.256427495   -0.132416331    0.065446739

Difference to translation invariance:
           :    0.0003543926   -0.0005305860    0.0003400744

Difference to rotation invariance:
           :    0.0248974874   -0.0059601299   -0.0145037905

Norm of the cartesian gradient     ...    6.1862032200
RMS gradient                       ...    0.1446101038
MAX gradient                       ...    0.3261494339

-------
TIMINGS
-------

Total SCF gradient time            ...      189.215 sec

One electron gradient       ....      24.668 sec  ( 13.0%)
RI-J Coulomb gradient       ....      10.194 sec  (  5.4%)
COSX gradient               ....     116.731 sec  ( 61.7%)
XC gradient                 ....      15.477 sec  (  8.2%)

Maximum memory used throughout the entire SCFGRAD-calculation: 756.5 MB

                            ***************************************
                            *     ORCA property calculations      *
                            ***************************************

                                    ---------------------
                                    Active property flags
                                    ---------------------
   (+) Dipole Moment


------------------------------------------------------------------------------
                       ORCA ELECTRIC PROPERTIES CALCULATION
------------------------------------------------------------------------------

Dipole Moment Calculation                       ... on
Quadrupole Moment Calculation                   ... off
Polarizability Calculation                      ... off
GBWName                                         ... final100.orca.gbw
Electron density                                ... final100.orca.scfp
The origin for moment calculation is the CENTER OF MASS  = (20.161571, 22.047540 20.330267)

-------------
DIPOLE MOMENT
-------------
                                X             Y             Z
Electronic contribution:     -1.06068      -0.63413       1.72944
Nuclear contribution   :      8.99418      -8.38736      -3.88215
                        -----------------------------------------
Total Dipole Moment    :      7.93350      -9.02149      -2.15271
                        -----------------------------------------
Magnitude (a.u.)       :     12.20499
Magnitude (Debye)      :     31.02262



--------------------
Rotational spectrum 
--------------------
 
Rotational constants in cm-1:     0.002021     0.001541     0.001345 
Rotational constants in MHz :    60.597307    46.199440    40.314559 

 Dipole components along the rotational axes: 
x,y,z [a.u.] :     8.965600     7.907676    -2.459371 
x,y,z [Debye]:    22.788743    20.099716    -6.251225 

 

Timings for individual modules:

Sum of individual times         ...      836.222 sec (=  13.937 min)
GTO integral calculation        ...       13.216 sec (=   0.220 min)   1.6 %
SCF iterations                  ...      629.075 sec (=  10.485 min)  75.2 %
SCF Gradient evaluation         ...      193.930 sec (=   3.232 min)  23.2 %
                             ****ORCA TERMINATED NORMALLY****
TOTAL RUN TIME: 0 days 0 hours 14 minutes 4 seconds 291 msec
