
                                 *****************
                                 * O   R   C   A *
                                 *****************

                                            #,                                       
                                            ###                                      
                                            ####                                     
                                            #####                                    
                                            ######                                   
                                           ########,                                 
                                     ,,################,,,,,                         
                               ,,#################################,,                 
                          ,,##########################################,,             
                       ,#########################################, ''#####,          
                    ,#############################################,,   '####,        
                  ,##################################################,,,,####,       
                ,###########''''           ''''###############################       
              ,#####''   ,,,,##########,,,,          '''####'''          '####       
            ,##' ,,,,###########################,,,                        '##       
           ' ,,###''''                  '''############,,,                           
         ,,##''                                '''############,,,,        ,,,,,,###''
      ,#''                                            '''#######################'''  
     '                                                          ''''####''''         
             ,#######,   #######,   ,#######,      ##                                
            ,#'     '#,  ##    ##  ,#'     '#,    #''#        ######   ,####,        
            ##       ##  ##   ,#'  ##            #'  '#       #        #'  '#        
            ##       ##  #######   ##           ,######,      #####,   #    #        
            '#,     ,#'  ##    ##  '#,     ,#' ,#      #,         ##   #,  ,#        
             '#######'   ##     ##  '#######'  #'      '#     #####' # '####'        



                  #######################################################
                  #                        -***-                        #
                  #          Department of theory and spectroscopy      #
                  #    Directorship and core code : Frank Neese         #
                  #        Max Planck Institute fuer Kohlenforschung    #
                  #                Kaiser Wilhelm Platz 1               #
                  #                 D-45470 Muelheim/Ruhr               #
                  #                      Germany                        #
                  #                                                     #
                  #                  All rights reserved                #
                  #                        -***-                        #
                  #######################################################


                         Program Version 5.0.3 -  RELEASE  -


 With contributions from (in alphabetic order):
   Daniel Aravena         : Magnetic Suceptibility
   Michael Atanasov       : Ab Initio Ligand Field Theory (pilot matlab implementation)
   Alexander A. Auer      : GIAO ZORA, VPT2 properties, NMR spectrum
   Ute Becker             : Parallelization
   Giovanni Bistoni       : ED, misc. LED, open-shell LED, HFLD
   Martin Brehm           : Molecular dynamics
   Dmytro Bykov           : SCF Hessian
   Vijay G. Chilkuri      : MRCI spin determinant printing, contributions to CSF-ICE
   Dipayan Datta          : RHF DLPNO-CCSD density
   Achintya Kumar Dutta   : EOM-CC, STEOM-CC
   Dmitry Ganyushin       : Spin-Orbit,Spin-Spin,Magnetic field MRCI
   Miquel Garcia          : C-PCM and meta-GGA Hessian, CC/C-PCM, Gaussian charge scheme
   Yang Guo               : DLPNO-NEVPT2, F12-NEVPT2, CIM, IAO-localization
   Andreas Hansen         : Spin unrestricted coupled pair/coupled cluster methods
   Benjamin Helmich-Paris : MC-RPA, TRAH-SCF, COSX integrals
   Lee Huntington         : MR-EOM, pCC
   Robert Izsak           : Overlap fitted RIJCOSX, COSX-SCS-MP3, EOM
   Marcus Kettner         : VPT2
   Christian Kollmar      : KDIIS, OOCD, Brueckner-CCSD(T), CCSD density, CASPT2, CASPT2-K
   Simone Kossmann        : Meta GGA functionals, TD-DFT gradient, OOMP2, MP2 Hessian
   Martin Krupicka        : Initial AUTO-CI
   Lucas Lang             : DCDCAS
   Marvin Lechner         : AUTO-CI (C++ implementation), FIC-MRCC
   Dagmar Lenk            : GEPOL surface, SMD
   Dimitrios Liakos       : Extrapolation schemes; Compound Job, initial MDCI parallelization
   Dimitrios Manganas     : Further ROCIS development; embedding schemes
   Dimitrios Pantazis     : SARC Basis sets
   Anastasios Papadopoulos: AUTO-CI, single reference methods and gradients
   Taras Petrenko         : DFT Hessian,TD-DFT gradient, ASA, ECA, R-Raman, ABS, FL, XAS/XES, NRVS
   Peter Pinski           : DLPNO-MP2, DLPNO-MP2 Gradient
   Christoph Reimann      : Effective Core Potentials
   Marius Retegan         : Local ZFS, SOC
   Christoph Riplinger    : Optimizer, TS searches, QM/MM, DLPNO-CCSD(T), (RO)-DLPNO pert. Triples
   Tobias Risthaus        : Range-separated hybrids, TD-DFT gradient, RPA, STAB
   Michael Roemelt        : Original ROCIS implementation
   Masaaki Saitow         : Open-shell DLPNO-CCSD energy and density
   Barbara Sandhoefer     : DKH picture change effects
   Avijit Sen             : IP-ROCIS
   Kantharuban Sivalingam : CASSCF convergence, NEVPT2, FIC-MRCI
   Bernardo de Souza      : ESD, SOC TD-DFT
   Georgi Stoychev        : AutoAux, RI-MP2 NMR, DLPNO-MP2 response
   Willem Van den Heuvel  : Paramagnetic NMR
   Boris Wezisla          : Elementary symmetry handling
   Frank Wennmohs         : Technical directorship


 We gratefully acknowledge several colleagues who have allowed us to
 interface, adapt or use parts of their codes:
   Stefan Grimme, W. Hujo, H. Kruse, P. Pracht,  : VdW corrections, initial TS optimization,
                  C. Bannwarth, S. Ehlert          DFT functionals, gCP, sTDA/sTD-DF
   Ed Valeev, F. Pavosevic, A. Kumar             : LibInt (2-el integral package), F12 methods
   Garnet Chan, S. Sharma, J. Yang, R. Olivares  : DMRG
   Ulf Ekstrom                                   : XCFun DFT Library
   Mihaly Kallay                                 : mrcc  (arbitrary order and MRCC methods)
   Jiri Pittner, Ondrej Demel                    : Mk-CCSD
   Frank Weinhold                                : gennbo (NPA and NBO analysis)
   Christopher J. Cramer and Donald G. Truhlar   : smd solvation model
   Lars Goerigk                                  : TD-DFT with DH, B97 family of functionals
   V. Asgeirsson, H. Jonsson                     : NEB implementation
   FAccTs GmbH                                   : IRC, NEB, NEB-TS, DLPNO-Multilevel, CI-OPT
                                                   MM, QMMM, 2- and 3-layer-ONIOM, Crystal-QMMM,
                                                   LR-CPCM, SF, NACMEs, symmetry and pop. for TD-DFT,
                                                   nearIR, NL-DFT gradient (VV10), updates on ESD,
                                                   ML-optimized integration grids
   S Lehtola, MJT Oliveira, MAL Marques          : LibXC Library
   Liviu Ungur et al                             : ANISO software


 Your calculation uses the libint2 library for the computation of 2-el integrals
 For citations please refer to: http://libint.valeyev.net

 Your ORCA version has been built with support for libXC version: 5.1.0
 For citations please refer to: https://tddft.org/programs/libxc/

 This ORCA versions uses:
   CBLAS   interface :  Fast vector & matrix operations
   LAPACKE interface :  Fast linear algebra routines
   SCALAPACK package :  Parallel linear algebra routines
   Shared memory     :  Shared parallel matrices
   BLAS/LAPACK       :  OpenBLAS 0.3.15  USE64BITINT DYNAMIC_ARCH NO_AFFINITY SkylakeX SINGLE_THREADED
        Core in use  :  SkylakeX
   Copyright (c) 2011-2014, The OpenBLAS Project


================================================================================

----- Orbital basis set information -----
Your calculation utilizes the basis: def2-SVP
   F. Weigend and R. Ahlrichs, Phys. Chem. Chem. Phys. 7, 3297 (2005).

The basis set includes element-specific modifications.

Your calculation utilizes the basis: aug-cc-pVTZ 
    H, B-Ne : Obtained from the ccRepo (grant-hill.group.shef.ac.uk/ccrepo) Feb. 2017
              R. A. Kendall, T. H. Dunning, Jr., R. J. Harrison, J. Chem. Phys. 96, 6796 (1992)
         He : Obtained from the ccRepo (grant-hill.group.shef.ac.uk/ccrepo) Feb. 2017
              D. E. Woon, T. H. Dunning, Jr., J. Chem. Phys. 100, 2975 (1994)
  Li-Be, Na : Obtained from the ccRepo (grant-hill.group.shef.ac.uk/ccrepo) Feb. 2017
              B. P. Prascher, D. E. Woon, K. A. Peterson, T. H. Dunning, Jr., A. K. Wilson, Theor. Chem. Acc. 128, 69 (2011)
         Mg : Obtained from the Peterson Research Group Website (tyr0.chem.wsu.edu/~kipeters) Feb. 2017
              B. P. Prascher, D. E. Woon, K. A. Peterson, T. H. Dunning, Jr., A. K. Wilson, Theor. Chem. Acc. 128, 69 (2011)
      Al-Ar : Obtained from the ccRepo (grant-hill.group.shef.ac.uk/ccrepo) Feb. 2017
              D. E. Woon, T. H. Dunning, Jr., J. Chem. Phys. 98, 1358 (1993)
      Sc-Zn : Obtained from the ccRepo (grant-hill.group.shef.ac.uk/ccrepo) Feb. 2017
              N. B. Balabanov, K. A. Peterson, J. Chem. Phys. 123, 064107 (2005)
              N. B. Balabanov, K. A. Peterson, J. Chem. Phys. 125, 074110 (2006)
      Ga-Kr : Obtained from the ccRepo (grant-hill.group.shef.ac.uk/ccrepo) Feb. 2017
              A. K. Wilson, D. E. Woon, K. A. Peterson, T. H. Dunning, Jr., J. Chem. Phys. 110, 7667 (1999)
     Ag, Au : Obtained from the Peterson Research Group Website (tyr0.chem.wsu.edu/~kipeters) Feb. 2017
              K. A. Peterson, C. Puzzarini, Theor. Chem. Acc. 114, 283 (2005)

Your calculation utilizes the basis: cc-pVTZ 
       H, B-Ne : Obtained from the ccRepo (grant-hill.group.shef.ac.uk/ccrepo) Feb. 2017
                 T. H. Dunning, Jr., J. Chem. Phys. 90, 1007 (1989)
            He : Obtained from the ccRepo (grant-hill.group.shef.ac.uk/ccrepo) Feb. 2017
                 D. E. Woon, T. H. Dunning, Jr., J. Chem. Phys. 100, 2975 (1994)
  Li-Be, Na-Mg : Obtained from the ccRepo (grant-hill.group.shef.ac.uk/ccrepo) Feb. 2017
                 B. P. Prascher, D. E. Woon, K. A. Peterson, T. H. Dunning, Jr., A. K. Wilson, Theor. Chem. Acc. 128, 69 (2011)
         Al-Ar : Obtained from the ccRepo (grant-hill.group.shef.ac.uk/ccrepo) Feb. 2017
                 D. E. Woon, T. H. Dunning, Jr., J. Chem. Phys. 98, 1358 (1993)
            Ca : Obtained from the Peterson Research Group Website (tyr0.chem.wsu.edu/~kipeters) Feb. 2017
                 J. Koput, K. A. Peterson, J. Phys. Chem. 106, 9595 (2002)
         Sc-Zn : Obtained from the ccRepo (grant-hill.group.shef.ac.uk/ccrepo) Feb. 2017
                 N. B. Balabanov, K. A. Peterson, J. Chem. Phys. 123, 064107 (2005)
                 N. B. Balabanov, K. A. Peterson, J. Chem. Phys. 125, 074110 (2006)
         Ga-Kr : Obtained from the ccRepo (grant-hill.group.shef.ac.uk/ccrepo) Feb. 2017
                 A. K. Wilson, D. E. Woon, K. A. Peterson, T. H. Dunning, Jr., J. Chem. Phys. 110, 7667 (1999)
             Y : Obtained from the ccRepo (grant-hill.group.shef.ac.uk/ccrepo) Feb. 2017
                 K. A. Peterson, D. Figgen, M. Dolg, H. Stoll, J. Chem. Phys. 126, 124101 (2007)
        Ag, Au : Obtained from the Peterson Research Group Website (tyr0.chem.wsu.edu/~kipeters) Feb. 2017
                 K. A. Peterson, C. Puzzarini, Theor. Chem. Acc. 114, 283 (2005)

----- AuxJ basis set information -----
Your calculation utilizes the auxiliary basis: def2/J
   F. Weigend, Phys. Chem. Chem. Phys. 8, 1057 (2006).

================================================================================
                                        WARNINGS
                       Please study these warnings very carefully!
================================================================================

WARNING: The globally-selected AuxJ basis set is optimized for use with ECPs
         Make sure a suitable alternative is explicitly given all heavy elements (Z>36)

INFO   : the flag for use of the SHARK integral package has been found!

================================================================================
                                       INPUT FILE
================================================================================
NAME = final000.orca.inp
|  1> ! NoMOPrint PrintBasis #MINIPRINT SMALLPRINT LARGEPRINT
|  2> ! ALLPOP XYZFILE
|  3> #! BP86 3-21G   TightSCF
|  4> ! ENGRAD
|  5> ! B3LYP NormalPNO PModel #DecontractAux
|  6> #! VerySlowConv 
|  7>  %maxcore 5000
|  8>  %scf  maxiter   500  end 
|  9> 
| 10> %pal
| 11>     nprocs 32
| 12> end
| 13> 
| 14> %basis
| 15>     NewGTO O    # New basis for oxygen
| 16>         "aug-cc-pVTZ"
| 17>     end
| 18>     NewGTO C    # New basis for carbon
| 19>         "aug-cc-pVTZ"
| 20>     end
| 21>     NewGTO H    # New basis for hydrogen
| 22>         "cc-pVTZ"
| 23>     end
| 24> end
| 25> 
| 26> * xyz 0   1
| 27>   C  9.19  11.79  11.56  #1
| 28>   H  8.76  10.82  11.78  #2
| 29>   H  8.51  12.45  11.04  #3
| 30>   C  10.47  11.53  10.7  #4
| 31>   H  10.33  12.05  9.68  #5
| 32>   H  11.24  11.94  11.3  #6
| 33>   C  10.84  10.05  10.4  #7
| 34>   H  10.03  9.51  9.94  #8
| 35>   H  10.98  9.56  11.39  #9
| 36>   C  12.16  9.96  9.52  #10
| 37>   H  12.31  10.86  8.86  #11
| 38>   H  11.98  9.15  8.78  #12
| 39>   O  13.32  9.76  10.34  #13
| 40>   H  13.34  8.89  10.78  #14
| 41>   O  9.56  12.52  12.8  #15
| 42>   H  8.76  12.96  13.07  #16
| 43>   O  10.66  15.8  13.64  #17
| 44>   H  9.96  15.58  13.03  #18
| 45>   H  11.34  15.12  13.72  #19
| 46>   O  13.85  12.1  11.68  #20
| 47>   H  14.06  12.69  10.99  #21
| 48>   H  13.65  11.22  11.24  #22
| 49>   O  6.86  14.21  12.49  #23
| 50>   H  6.23  13.49  12.46  #24
| 51>   H  6.48  14.83  13.12  #25
| 52>   O  12.02  13.3  13.54  #26
| 53>   H  12.63  13.36  12.8  #27
| 54>   H  11.14  13.06  13.15  #28
| 55>   O  9.59  7.39  6.88  #29
| 56>   H  9.1  7.82  6.12  #30
| 57>   H  10.19  8.11  7.13  #31
| 58>   O  5.84  16.16  10.72  #32
| 59>   H  6.07  15.24  10.9  #33
| 60>   H  6.02  16.56  11.55  #34
| 61>   O  12.92  6.79  10.33  #35
| 62>   H  11.99  6.93  10.18  #36
| 63>   H  13.04  6.37  11.2  #37
| 64>   O  12.9  16.77  11.49  #38
| 65>   H  12.08  16.32  11.79  #39
| 66>   H  12.55  17.72  11.49  #40
| 67>   O  15.91  9.49  12.36  #41
| 68>   H  15.89  10.41  12.23  #42
| 69>   H  15.22  9.36  13.03  #43
| 70>   O  11.15  5.53  5.3  #44
| 71>   H  10.75  4.7  4.93  #45
| 72>   H  10.55  6.03  5.81  #46
| 73>   O  12.81  14.78  16.07  #47
| 74>   H  13.53  14.4  16.5  #48
| 75>   H  12.49  14.18  15.38  #49
| 76>   O  12.48  7.5  7.21  #50
| 77>   H  13.33  7.52  7.6  #51
| 78>   H  12.24  6.61  6.94  #52
| 79>   O  9.41  13.77  7.11  #53
| 80>   H  9.8  14.19  7.87  #54
| 81>   H  10.06  13.32  6.56  #55
| 82>   O  6.84  13.67  9.48  #56
| 83>   H  6.39  12.93  9.84  #57
| 84>   H  6.43  13.87  8.62  #58
| 85>   O  7.58  8.84  5.3  #59
| 86>   H  7.66  9.76  5.61  #60
| 87>   H  6.94  8.4  5.84  #61
| 88>   O  6.42  9.2  12.68  #62
| 89>   H  7.07  8.76  13.23  #63
| 90>   H  6.68  8.93  11.79  #64
| 91>   O  14.99  11.85  14.18  #65
| 92>   H  14.73  12.5  14.92  #66
| 93>   H  14.44  11.88  13.43  #67
| 94>   O  8.98  15.91  11.35  #68
| 95>   H  8.37  15.16  11.18  #69
| 96>   H  8.53  16.71  11.14  #70
| 97>   O  15.52  9.64  8.4  #71
| 98>   H  14.89  9.6  9.09  #72
| 99>   H  15.36  10.42  7.82  #73
|100>   O  6.03  12.28  15  #74
|101>   H  6.54  13.07  14.85  #75
|102>   H  5.13  12.64  15.09  #76
|103>   O  9.87  7.96  3.74  #77
|104>   H  9.38  8.71  4.03  #78
|105>   H  10.77  8.1  3.98  #79
|106>   O  9.39  17.3  15.86  #80
|107>   H  9.86  16.73  15.17  #81
|108>   H  9.57  17.1  16.78  #82
|109>   O  5.37  11.9  11.33  #83
|110>   H  4.47  11.69  11.12  #84
|111>   H  5.77  11.06  11.5  #85
|112>   O  12.14  10.29  14.15  #86
|113>   H  12.05  11.16  13.67  #87
|114>   H  11.69  10.39  15.04  #88
|115>   O  5.54  16.88  13.89  #89
|116>   H  4.69  16.84  14.37  #90
|117>   H  6.07  17.52  14.32  #91
|118>   Q  0.6645  19.15$  13.55$  12.61$
|119>   Q  0.6645  20.29$  14.31$  12.01$
|120>   Q  -1.3290  19.85$  13.63$  12.18$
|121>   Q  0.6645  4.59$  5.16$  4.42$
|122>   Q  0.6645  4.2$  5.5$  5.81$
|123>   Q  -1.3290  4.6$  5.05$  5.28$
|124>   Q  0.6645  8.81$  6.48$  3.01$
|125>   Q  0.6645  8.98$  5.36$  1.89$
|126>   Q  -1.3290  8.57$  5.88$  2.47$
|127>   Q  0.6645  6.03$  11.07$  7.11$
|128>   Q  0.6645  5.59$  10.02$  8.29$
|129>   Q  -1.3290  5.49$  10.58$  7.6$
|130>   Q  0.6645  0.61$  8.24$  9.67$
|131>   Q  0.6645  0.58$  9.74$  10.03$
|132>   Q  -1.3290  0.87$  9.03$  9.67$
|133>   Q  0.6645  10.33$  5.27$  14.65$
|134>   Q  0.6645  9.9$  4.48$  15.94$
|135>   Q  -1.3290  10.41$  4.95$  15.44$
|136>   Q  0.6645  7.68$  0.87$  9.88$
|137>   Q  0.6645  7.33$  -0.5$  9.11$
|138>   Q  -1.3290  7.83$  0.13$  9.47$
|139>   Q  0.6645  11.45$  18.92$  16.9$
|140>   Q  0.6645  11.15$  20.31$  17.37$
|141>   Q  -1.3290  11.25$  19.74$  16.77$
|142>   Q  0.6645  15.97$  19.39$  6.12$
|143>   Q  0.6645  14.89$  19.31$  7.21$
|144>   Q  -1.3290  15.19$  19.38$  6.39$
|145>   Q  0.6645  13.77$  10.63$  0.91$
|146>   Q  0.6645  13.3$  9.54$  1.82$
|147>   Q  -1.3290  13.69$  9.83$  1.14$
|148>   Q  0.6645  18.13$  13.73$  14.78$
|149>   Q  0.6645  16.78$  13.37$  14.06$
|150>   Q  -1.3290  17.58$  13.61$  14.1$
|151>   Q  0.6645  16.23$  9.86$  19.76$
|152>   Q  0.6645  15.56$  9.94$  18.42$
|153>   Q  -1.3290  15.89$  10.26$  19.1$
|154>   Q  0.6645  10.08$  1.87$  4.88$
|155>   Q  0.6645  9.16$  3.04$  4.71$
|156>   Q  -1.3290  9.88$  2.69$  4.88$
|157>   Q  0.6645  11.17$  19.25$  20.64$
|158>   Q  0.6645  10.32$  18.05$  20.21$
|159>   Q  -1.3290  11.04$  18.43$  20.44$
|160>   Q  0.6645  14.61$  2.14$  9.65$
|161>   Q  0.6645  16.01$  2.09$  10.4$
|162>   Q  -1.3290  15.17$  2.29$  10.28$
|163>   Q  0.6645  6.28$  7.7$  9.7$
|164>   Q  0.6645  4.93$  8.36$  9.47$
|165>   Q  -1.3290  5.74$  8.34$  9.64$
|166>   Q  0.6645  14.01$  18.45$  8.77$
|167>   Q  0.6645  14.66$  19.52$  9.69$
|168>   Q  -1.3290  14.61$  18.97$  9.05$
|169>   Q  0.6645  2.11$  16.11$  10.89$
|170>   Q  0.6645  0.77$  15.31$  10.44$
|171>   Q  -1.3290  1.47$  15.49$  10.91$
|172>   Q  0.6645  7.3$  11.7$  20.59$
|173>   Q  0.6645  8.42$  11.52$  19.69$
|174>   Q  -1.3290  8.1$  11.82$  20.36$
|175>   Q  0.6645  16.79$  16.72$  10.55$
|176>   Q  0.6645  16.01$  17.48$  9.61$
|177>   Q  -1.3290  16.49$  16.85$  9.82$
|178>   Q  0.6645  10.24$  10$  17.93$
|179>   Q  0.6645  10.7$  9$  18.97$
|180>   Q  -1.3290  10.23$  9.25$  18.32$
|181>   Q  0.6645  15.69$  4.8$  17.82$
|182>   Q  0.6645  15.21$  5.82$  18.73$
|183>   Q  -1.3290  15.22$  5.08$  18.42$
|184>   Q  0.6645  2.87$  11.45$  15.01$
|185>   Q  0.6645  3.31$  12.5$  14.02$
|186>   Q  -1.3290  3.13$  12.19$  14.8$
|187>   Q  0.6645  12.03$  18.23$  5.23$
|188>   Q  0.6645  13.49$  18.59$  5.02$
|189>   Q  -1.3290  12.64$  18.59$  4.85$
|190>   Q  0.6645  7.73$  21.01$  14.82$
|191>   Q  0.6645  6.87$  22.15$  14.07$
|192>   Q  -1.3290  7.38$  21.77$  14.68$
|193>   Q  0.6645  15.64$  1.38$  7.51$
|194>   Q  0.6645  15.68$  1.47$  6.04$
|195>   Q  -1.3290  15.79$  1.74$  6.8$
|196>   Q  0.6645  16.76$  10.06$  16.2$
|197>   Q  0.6645  15.76$  10.59$  15.27$
|198>   Q  -1.3290  15.97$  10.24$  15.99$
|199>   Q  0.6645  18.61$  3.45$  6.64$
|200>   Q  0.6645  18.12$  2.09$  6.1$
|201>   Q  -1.3290  18.7$  2.71$  6.27$
|202>   Q  0.6645  16.82$  9.08$  7.42$
|203>   Q  0.6645  17.53$  9.39$  6.12$
|204>   Q  -1.3290  17.27$  8.9$  6.75$
|205>   Q  0.6645  5.93$  10.35$  15.58$
|206>   Q  0.6645  5.51$  9.48$  16.7$
|207>   Q  -1.3290  5.79$  9.64$  15.91$
|208>   Q  0.6645  17.6$  10.37$  4.13$
|209>   Q  0.6645  18.27$  11.37$  5.16$
|210>   Q  -1.3290  17.7$  10.8$  4.88$
|211>   Q  0.6645  13.18$  7.97$  17.04$
|212>   Q  0.6645  12.98$  7.11$  18.31$
|213>   Q  -1.3290  13.36$  7.7$  17.81$
|214>   Q  0.6645  8.54$  18.7$  12.71$
|215>   Q  0.6645  8.79$  18.78$  11.13$
|216>   Q  -1.3290  8.35$  18.67$  11.85$
|217>   Q  0.6645  14.5$  -0.06$  9.51$
|218>   Q  0.6645  14.08$  0$  7.96$
|219>   Q  -1.3290  14.53$  0.19$  8.7$
|220>   Q  0.6645  1.63$  12.8$  12.99$
|221>   Q  0.6645  1.97$  14.01$  12.04$
|222>   Q  -1.3290  2.12$  13.26$  12.46$
|223>   Q  0.6645  3.88$  6.44$  13.37$
|224>   Q  0.6645  4.29$  7.43$  12.31$
|225>   Q  -1.3290  4.28$  6.7$  12.67$
|226>   Q  0.6645  4.64$  1.88$  6.67$
|227>   Q  0.6645  5.08$  3.09$  6.07$
|228>   Q  -1.3290  5.21$  2.32$  6.31$
|229>   Q  0.6645  9.97$  9.4$  1.66$
|230>   Q  0.6645  10.35$  8.85$  0.24$
|231>   Q  -1.3290  9.86$  8.97$  0.94$
|232>   Q  0.6645  15.98$  7.44$  6.16$
|233>   Q  0.6645  15.29$  5.97$  6.52$
|234>   Q  -1.3290  15.46$  6.75$  6.07$
|235>   Q  0.6645  5.82$  -0.42$  12.3$
|236>   Q  0.6645  6.17$  0.96$  11.74$
|237>   Q  -1.3290  5.98$  0.41$  12.34$
|238>   Q  0.6645  18.11$  11.59$  8.59$
|239>   Q  0.6645  16.99$  12.3$  7.9$
|240>   Q  -1.3290  17.76$  12.19$  8.16$
|241>   Q  0.6645  9.24$  4.09$  12.54$
|242>   Q  0.6645  7.88$  4.76$  12.69$
|243>   Q  -1.3290  8.55$  4.47$  12.28$
|244>   Q  0.6645  8.26$  9$  18.93$
|245>   Q  0.6645  6.81$  8.73$  19.18$
|246>   Q  -1.3290  7.63$  8.53$  19.15$
|247>   Q  0.6645  3.15$  15.22$  7.17$
|248>   Q  0.6645  2.39$  13.99$  6.51$
|249>   Q  -1.3290  2.49$  14.69$  7$
|250>   Q  0.6645  5.62$  2.94$  16.03$
|251>   Q  0.6645  4.41$  3.68$  15.46$
|252>   Q  -1.3290  5.13$  3.63$  15.88$
|253>   Q  0.6645  14.27$  14.76$  6.65$
|254>   Q  0.6645  13.47$  14.16$  7.76$
|255>   Q  -1.3290  13.58$  14.38$  6.97$
|256>   Q  0.6645  13.64$  15.58$  9.79$
|257>   Q  0.6645  15.1$  15.39$  9.54$
|258>   Q  -1.3290  14.31$  15.14$  9.55$
|259>   Q  0.6645  16.75$  15.24$  16.03$
|260>   Q  0.6645  15.5$  15.66$  15.17$
|261>   Q  -1.3290  15.91$  15.41$  15.88$
|262>   Q  0.6645  8.84$  16.75$  2.18$
|263>   Q  0.6645  7.87$  17.39$  3.23$
|264>   Q  -1.3290  8.07$  16.92$  2.52$
|265>   Q  0.6645  20.58$  12.33$  4.94$
|266>   Q  0.6645  20.24$  11.07$  4.25$
|267>   Q  -1.3290  20.11$  11.68$  4.76$
|268>   Q  0.6645  9.98$  3.23$  6.6$
|269>   Q  0.6645  10.7$  3.95$  7.8$
|270>   Q  -1.3290  10.15$  3.47$  7.42$
|271>   Q  0.6645  12.4$  16.7$  7.31$
|272>   Q  0.6645  12.12$  17.88$  8.36$
|273>   Q  -1.3290  12.49$  17.13$  8.09$
|274>   Q  0.6645  12.04$  21.44$  13.83$
|275>   Q  0.6645  11.79$  20.32$  14.77$
|276>   Q  -1.3290  11.96$  20.64$  14.05$
|277>   Q  0.6645  2.76$  18.29$  13.41$
|278>   Q  0.6645  2.92$  17.84$  11.99$
|279>   Q  -1.3290  3.02$  18.33$  12.62$
|280>   Q  0.6645  8.28$  3.78$  7.81$
|281>   Q  0.6645  6.8$  3.21$  7.25$
|282>   Q  -1.3290  7.38$  3.67$  7.71$
|283>   Q  0.6645  13.17$  9.22$  18.48$
|284>   Q  0.6645  13.76$  10.42$  19.03$
|285>   Q  -1.3290  13.13$  10.01$  18.76$
|286>   Q  0.6645  8.43$  10.98$  17.14$
|287>   Q  0.6645  6.99$  11.23$  17.49$
|288>   Q  -1.3290  7.79$  11.03$  17.66$
|289>   Q  0.6645  1.02$  12.65$  5.07$
|290>   Q  0.6645  1.95$  11.85$  6.01$
|291>   Q  -1.3290  1.74$  12.41$  5.41$
|292>   Q  0.6645  21.01$  12.62$  13.42$
|293>   Q  0.6645  21.6$  11.71$  14.63$
|294>   Q  -1.3290  21.56$  12.39$  14.07$
|295>   Q  0.6645  10.88$  7.99$  16.81$
|296>   Q  0.6645  11.06$  6.68$  16.03$
|297>   Q  -1.3290  11.26$  7.46$  16.26$
|298>   Q  0.6645  7.9$  16.34$  5.39$
|299>   Q  0.6645  8.6$  15.42$  6.37$
|300>   Q  -1.3290  8.3$  16.15$  6.11$
|301>   Q  0.6645  11.36$  7.24$  1.57$
|302>   Q  0.6645  12.45$  8.02$  0.67$
|303>   Q  -1.3290  12.14$  7.45$  1.23$
|304>   Q  0.6645  18.09$  13.29$  17.34$
|305>   Q  0.6645  18.63$  14.65$  16.77$
|306>   Q  -1.3290  18.18$  13.95$  16.77$
|307>   Q  0.6645  4$  16.78$  9.94$
|308>   Q  0.6645  2.84$  17.59$  9.14$
|309>   Q  -1.3290  3.2$  17.1$  9.79$
|310>   Q  0.6645  10.27$  13.39$  0.48$
|311>   Q  0.6645  9.63$  12.07$  0.04$
|312>   Q  -1.3290  10.16$  12.56$  0.51$
|313>   Q  0.6645  2.37$  5.25$  14.53$
|314>   Q  0.6645  2.43$  6.37$  15.45$
|315>   Q  -1.3290  2.65$  5.96$  14.77$
|316>   Q  0.6645  10.5$  1.73$  8.09$
|317>   Q  0.6645  9.92$  0.63$  9.1$
|318>   Q  -1.3290  10.51$  1$  8.57$
|319>   Q  0.6645  6$  15.46$  6.73$
|320>   Q  0.6645  5.59$  14.07$  6.39$
|321>   Q  -1.3290  5.71$  14.71$  6.89$
|322>   Q  0.6645  14.42$  13$  18.98$
|323>   Q  0.6645  15.28$  13.66$  20.08$
|324>   Q  -1.3290  14.58$  13.46$  19.67$
|325>   Q  0.6645  2.13$  16.1$  15.32$
|326>   Q  0.6645  1.92$  17.56$  15.53$
|327>   Q  -1.3290  2.28$  16.92$  15.17$
|328>   Q  0.6645  6.37$  17.15$  9.29$
|329>   Q  0.6645  6.99$  17.38$  7.86$
|330>   Q  -1.3290  6.45$  17.54$  8.51$
|331>   Q  0.6645  6.38$  19.24$  12.02$
|332>   Q  0.6645  4.93$  19.36$  12.53$
|333>   Q  -1.3290  5.6$  19.6$  12.09$
|334>   Q  0.6645  17.95$  15.6$  12.13$
|335>   Q  0.6645  18.59$  16.93$  12.13$
|336>   Q  -1.3290  17.95$  16.43$  12.24$
|337>   Q  0.6645  19.58$  6.99$  4.73$
|338>   Q  0.6645  18.86$  7.67$  3.54$
|339>   Q  -1.3290  19.45$  7.19$  3.91$
|340>   Q  0.6645  14.54$  0.56$  4.11$
|341>   Q  0.6645  14.21$  2.13$  4.02$
|342>   Q  -1.3290  14.28$  1.34$  4.34$
|343>   Q  0.6645  11.38$  15.65$  8.98$
|344>   Q  0.6645  10.3$  15.43$  10.16$
|345>   Q  -1.3290  10.71$  15.3$  9.39$
|346>   Q  0.6645  13.56$  18.61$  17.95$
|347>   Q  0.6645  13.67$  20.16$  17.84$
|348>   Q  -1.3290  13.97$  19.37$  18$
|349>   Q  0.6645  1.52$  6.46$  13.04$
|350>   Q  0.6645  1.01$  5.75$  11.8$
|351>   Q  -1.3290  1.15$  6.42$  12.28$
|352>   Q  0.6645  10.08$  15.08$  20.55$
|353>   Q  0.6645  11.48$  15.26$  21.02$
|354>   Q  -1.3290  10.68$  15.09$  21.13$
|355>   Q  0.6645  18.96$  13.63$  7.8$
|356>   Q  0.6645  18.92$  15$  7.07$
|357>   Q  -1.3290  19.24$  14.41$  7.6$
|358>   Q  0.6645  6.77$  8.51$  3.61$
|359>   Q  0.6645  6.38$  8.83$  2.14$
|360>   Q  -1.3290  6.34$  8.41$  2.91$
|361>   Q  0.6645  17.69$  17.22$  15.22$
|362>   Q  0.6645  17.98$  16.04$  14.34$
|363>   Q  -1.3290  18.11$  16.54$  15.01$
|364>   Q  0.6645  20.55$  2.73$  8.98$
|365>   Q  0.6645  19.9$  2.93$  10.22$
|366>   Q  -1.3290  20.2$  3.2$  9.51$
|367>   Q  0.6645  10.71$  2.49$  13.06$
|368>   Q  0.6645  11.13$  3.22$  11.8$
|369>   Q  -1.3290  10.88$  3.17$  12.6$
|370>   Q  0.6645  15.07$  3.73$  7.24$
|371>   Q  0.6645  13.99$  4.64$  7.67$
|372>   Q  -1.3290  14.75$  4.48$  7.45$
|373>   Q  0.6645  17.93$  9.04$  2.02$
|374>   Q  0.6645  16.68$  8.32$  2.46$
|375>   Q  -1.3290  17.43$  8.67$  2.57$
|376>   Q  0.6645  15.72$  15.83$  1.94$
|377>   Q  0.6645  15.4$  14.38$  2.32$
|378>   Q  -1.3290  15.65$  15.17$  2.45$
|379>   Q  0.6645  20.29$  6.41$  10.88$
|380>   Q  0.6645  18.9$  6.72$  11.38$
|381>   Q  -1.3290  19.63$  6.38$  11.46$
|382>   Q  0.6645  14.45$  6.8$  2.32$
|383>   Q  0.6645  15.75$  6.37$  2.62$
|384>   Q  -1.3290  15.24$  6.84$  2.22$
|385>   Q  0.6645  10.3$  11.44$  1.87$
|386>   Q  0.6645  11.2$  10.84$  3.07$
|387>   Q  -1.3290  10.48$  10.94$  2.6$
|388>   Q  0.6645  6.85$  14.98$  21.58$
|389>   Q  0.6645  7.56$  13.89$  20.83$
|390>   Q  -1.3290  7.15$  14.62$  20.89$
|391>   Q  0.6645  18.79$  7.73$  6.94$
|392>   Q  0.6645  18.86$  6.16$  7.2$
|393>   Q  -1.3290  19.14$  6.94$  6.96$
|394>   Q  0.6645  0.42$  8.5$  14.76$
|395>   Q  0.6645  1.92$  8.64$  15.25$
|396>   Q  -1.3290  1.07$  8.52$  15.36$
|397>   Q  0.6645  9.14$  21.2$  10.78$
|398>   Q  0.6645  10.51$  20.51$  11.14$
|399>   Q  -1.3290  9.9$  21.09$  11.21$
|400>   Q  0.6645  2.6$  9.49$  10.86$
|401>   Q  0.6645  2.23$  8.31$  11.78$
|402>   Q  -1.3290  2.73$  8.92$  11.49$
|403>   Q  0.6645  12.26$  5.86$  13.29$
|404>   Q  0.6645  12.27$  4.39$  12.86$
|405>   Q  -1.3290  12.6$  5.15$  12.94$
|406>   Q  0.6645  5.18$  15.23$  4.58$
|407>   Q  0.6645  4.8$  16.3$  5.58$
|408>   Q  -1.3290  5.26$  16$  4.91$
|409>   Q  0.6645  17.78$  5.75$  3.45$
|410>   Q  0.6645  16.76$  6.02$  4.55$
|411>   Q  -1.3290  17.06$  5.62$  3.87$
|412>   Q  0.6645  20.63$  11.81$  11.46$
|413>   Q  0.6645  20.15$  10.81$  10.46$
|414>   Q  -1.3290  20.65$  11.06$  11.09$
|415>   Q  0.6645  13.42$  4.1$  17.04$
|416>   Q  0.6645  12.13$  4.22$  16.03$
|417>   Q  -1.3290  12.79$  3.85$  16.5$
|418>   Q  0.6645  13.29$  8.73$  14.5$
|419>   Q  0.6645  14.5$  9.15$  15.49$
|420>   Q  -1.3290  14.08$  8.66$  14.88$
|421>   Q  0.6645  4.19$  9.91$  18.86$
|422>   Q  0.6645  4.38$  8.37$  18.45$
|423>   Q  -1.3290  4.56$  9.22$  18.46$
|424>   Q  0.6645  3.04$  6.06$  9.01$
|425>   Q  0.6645  3.45$  4.82$  9.74$
|426>   Q  -1.3290  2.94$  5.26$  9.28$
|427>   Q  0.6645  3.76$  18.3$  6.51$
|428>   Q  0.6645  4.68$  17.41$  7.47$
|429>   Q  -1.3290  4.1$  17.58$  6.87$
|430>   Q  0.6645  11.98$  17.69$  18.8$
|431>   Q  0.6645  12.72$  16.88$  17.76$
|432>   Q  -1.3290  12.16$  17.43$  18.02$
|433>   Q  0.6645  2.74$  9.31$  13.43$
|434>   Q  0.6645  3.95$  9.28$  14.43$
|435>   Q  -1.3290  3.15$  9.32$  14.2$
|436>   Q  0.6645  8.08$  11.6$  5.42$
|437>   Q  0.6645  8.31$  12.13$  6.83$
|438>   Q  -1.3290  8.07$  11.56$  6.29$
|439>   Q  0.6645  5.56$  19.67$  8.18$
|440>   Q  0.6645  5.12$  21.08$  8.04$
|441>   Q  -1.3290  5.69$  20.49$  7.99$
|442>   Q  0.6645  4.97$  9.34$  3.68$
|443>   Q  0.6645  4.62$  10.16$  4.96$
|444>   Q  -1.3290  4.48$  9.85$  4.19$
|445>   Q  0.6645  6.75$  5.64$  17.76$
|446>   Q  0.6645  5.56$  4.71$  17.61$
|447>   Q  -1.3290  6.09$  5.18$  18.04$
|448>   Q  0.6645  15.04$  6.81$  14.91$
|449>   Q  0.6645  14.25$  5.59$  14.54$
|450>   Q  -1.3290  14.95$  6$  14.73$
|451>   Q  0.6645  2.45$  15.64$  17.81$
|452>   Q  0.6645  1.49$  16.4$  18.46$
|453>   Q  -1.3290  2.16$  16.33$  18.06$
|454>   Q  0.6645  13.92$  2.41$  15.19$
|455>   Q  0.6645  14.77$  2.88$  13.98$
|456>   Q  -1.3290  14.42$  2.32$  14.52$
|457>   Q  0.6645  17.9$  9.18$  13.16$
|458>   Q  0.6645  19.2$  8.6$  13.57$
|459>   Q  -1.3290  18.37$  8.77$  13.66$
|460>   Q  0.6645  15.56$  11.97$  17.16$
|461>   Q  0.6645  15.7$  13.6$  16.87$
|462>   Q  -1.3290  15.32$  12.81$  16.97$
|463>   Q  0.6645  21.03$  15.02$  8.26$
|464>   Q  0.6645  22.63$  15.15$  8.1$
|465>   Q  -1.3290  21.81$  15.37$  8.35$
|466>   Q  0.6645  10.77$  0.89$  15.15$
|467>   Q  0.6645  11.2$  2.06$  16.12$
|468>   Q  -1.3290  11.2$  1.27$  15.83$
|469>   Q  0.6645  4.62$  12.49$  4.71$
|470>   Q  0.6645  6$  12.96$  4.04$
|471>   Q  -1.3290  5.36$  12.94$  4.61$
|472>   Q  0.6645  8.4$  17.34$  19.16$
|473>   Q  0.6645  8.28$  18.86$  19.05$
|474>   Q  -1.3290  8.47$  18.14$  19.44$
|475>   Q  0.6645  18.4$  1.84$  12.53$
|476>   Q  0.6645  16.98$  2.44$  12.66$
|477>   Q  -1.3290  17.6$  1.86$  12.77$
|478>   Q  0.6645  20.82$  7.35$  8.84$
|479>   Q  0.6645  21.77$  6.06$  9.02$
|480>   Q  -1.3290  21.21$  6.68$  9.26$
|481>   Q  0.6645  2.31$  7.96$  5.03$
|482>   Q  0.6645  1.69$  7.15$  6.15$
|483>   Q  -1.3290  2.26$  7.73$  5.83$
|484>   Q  0.6645  6.09$  5.62$  13.43$
|485>   Q  0.6645  6.35$  4.6$  14.48$
|486>   Q  -1.3290  6.58$  5.2$  13.96$
|487>   Q  0.6645  18.56$  6.92$  14.95$
|488>   Q  0.6645  18.17$  5.89$  16.14$
|489>   Q  -1.3290  18.6$  6.21$  15.46$
|490>   Q  0.6645  18.17$  17.67$  5.69$
|491>   Q  0.6645  17.84$  16.38$  4.84$
|492>   Q  -1.3290  17.64$  17.1$  5.26$
|493>   Q  0.6645  18.6$  9.13$  9.71$
|494>   Q  0.6645  19.56$  9.63$  8.61$
|495>   Q  -1.3290  19.09$  9.69$  9.32$
|496>   Q  0.6645  6.76$  2.93$  9.86$
|497>   Q  0.6645  7.39$  3.22$  11.24$
|498>   Q  -1.3290  7.11$  2.69$  10.6$
|499>   Q  0.6645  16.88$  3.64$  15.88$
|500>   Q  0.6645  16.02$  4.93$  15.87$
|501>   Q  -1.3290  16.59$  4.37$  16.21$
|502>   Q  0.6645  10.37$  16.45$  6.14$
|503>   Q  0.6645  11.54$  15.56$  5.81$
|504>   Q  -1.3290  11.19$  16.31$  6.02$
|505>   Q  0.6645  15.29$  19.37$  14.22$
|506>   Q  0.6645  13.95$  19.71$  13.93$
|507>   Q  -1.3290  14.69$  19.43$  13.73$
|508>   Q  0.6645  6.42$  12.2$  1$
|509>   Q  0.6645  6.41$  13.66$  1.64$
|510>   Q  -1.3290  6.68$  12.85$  1.48$
|511>   Q  0.6645  12.31$  11.95$  5.1$
|512>   Q  0.6645  12.36$  13.11$  6.01$
|513>   Q  -1.3290  11.98$  12.49$  5.62$
|514>   Q  0.6645  13.47$  10.38$  3.86$
|515>   Q  0.6645  13.83$  11.69$  3.07$
|516>   Q  -1.3290  13.33$  11.16$  3.52$
|517>   Q  0.6645  12.53$  8.13$  5.23$
|518>   Q  0.6645  12.8$  7.97$  3.65$
|519>   Q  -1.3290  12.55$  8.36$  4.38$
|520>   Q  0.6645  15.67$  15.14$  4.6$
|521>   Q  0.6645  16.18$  15.86$  5.76$
|522>   Q  -1.3290  15.78$  15.24$  5.41$
|523>   Q  0.6645  14.08$  6.24$  4.64$
|524>   Q  0.6645  12.61$  5.75$  4.38$
|525>   Q  -1.3290  13.42$  6$  4.15$
|526>   Q  0.6645  7.09$  5.3$  9.12$
|527>   Q  0.6645  6.05$  5.69$  10.18$
|528>   Q  -1.3290  6.71$  5.82$  9.66$
|529>   Q  0.6645  7.37$  19.73$  7.43$
|530>   Q  0.6645  8.78$  20.22$  6.74$
|531>   Q  -1.3290  8.2$  19.67$  7.09$
|532>   Q  0.6645  12.28$  19.64$  10.58$
|533>   Q  0.6645  12.15$  19.76$  12.11$
|534>   Q  -1.3290  12.09$  19.37$  11.35$
|535>   Q  0.6645  17.16$  7.05$  10.24$
|536>   Q  0.6645  17$  8.23$  11.18$
|537>   Q  -1.3290  17.44$  7.7$  10.71$
|538>   Q  0.6645  16.11$  4.89$  10.34$
|539>   Q  0.6645  15.47$  5.46$  9.13$
|540>   Q  -1.3290  15.99$  5.46$  9.77$
|541>   Q  0.6645  16.3$  12.42$  2.53$
|542>   Q  0.6645  14.95$  12.43$  1.54$
|543>   Q  -1.3290  15.42$  12.49$  2.28$
|544>   Q  0.6645  21.84$  9.93$  7.72$
|545>   Q  0.6645  21.13$  9.74$  6.37$
|546>   Q  -1.3290  21.2$  9.86$  7.21$
|547>   Q  0.6645  9.75$  20.17$  14.14$
|548>   Q  0.6645  9.19$  19$  15.08$
|549>   Q  -1.3290  9.17$  19.67$  14.54$
|550>   Q  0.6645  5.35$  17.99$  16.85$
|551>   Q  0.6645  3.94$  17.61$  17.3$
|552>   Q  -1.3290  4.77$  17.77$  17.41$
|553>   Q  0.6645  18.69$  12.79$  1.62$
|554>   Q  0.6645  18.5$  12.95$  3.11$
|555>   Q  -1.3290  18.28$  12.7$  2.33$
|556>   Q  0.6645  15.65$  4.73$  13.09$
|557>   Q  0.6645  14.97$  3.82$  12.14$
|558>   Q  -1.3290  15.51$  4.02$  12.72$
|559>   Q  0.6645  6.31$  14.97$  18.78$
|560>   Q  0.6645  5.46$  16.09$  18.18$
|561>   Q  -1.3290  5.81$  15.32$  18.21$
|562>   Q  0.6645  0.27$  14.19$  14.94$
|563>   Q  0.6645  0.38$  15.01$  16.23$
|564>   Q  -1.3290  0.42$  14.9$  15.39$
|565>   Q  0.6645  18.4$  8.92$  15.56$
|566>   Q  0.6645  19.31$  9.67$  16.59$
|567>   Q  -1.3290  18.68$  9.16$  16.34$
|568>   Q  0.6645  12.01$  20.52$  7.96$
|569>   Q  0.6645  11.12$  19.54$  8.79$
|570>   Q  -1.3290  11.79$  19.76$  8.3$
|571>   Q  0.6645  10.78$  15.73$  2.72$
|572>   Q  0.6645  10.99$  16.11$  1.25$
|573>   Q  -1.3290  10.73$  16.24$  2.03$
|574>   Q  0.6645  19.36$  14.27$  4.82$
|575>   Q  0.6645  17.88$  13.99$  5.3$
|576>   Q  -1.3290  18.52$  14.31$  4.82$
|577>   Q  0.6645  5.98$  19.58$  15.5$
|578>   Q  0.6645  7.31$  18.98$  16.05$
|579>   Q  -1.3290  6.51$  18.95$  15.71$
|580>   Q  0.6645  18.36$  8.02$  18.11$
|581>   Q  0.6645  19.71$  7.86$  18.79$
|582>   Q  -1.3290  18.88$  7.83$  18.76$
|583>   Q  0.6645  13.39$  12.74$  -0.54$
|584>   Q  0.6645  12.22$  12.59$  0.49$
|585>   Q  -1.3290  13.04$  12.55$  0.22$
|586>   Q  0.6645  8.54$  19.41$  4.05$
|587>   Q  0.6645  8.31$  18.59$  5.39$
|588>   Q  -1.3290  8.29$  18.74$  4.52$
|589>   Q  0.6645  8.42$  20.74$  17.74$
|590>   Q  0.6645  6.9$  20.32$  17.36$
|591>   Q  -1.3290  7.73$  20.24$  17.57$
|592>   Q  0.6645  10.9$  13.73$  4.37$
|593>   Q  0.6645  9.53$  14.02$  3.8$
|594>   Q  -1.3290  10.26$  14.19$  4.17$
|595>   Q  0.6645  12.21$  3.76$  9.16$
|596>   Q  0.6645  12.55$  5.29$  9.27$
|597>   Q  -1.3290  12.4$  4.55$  8.86$
|598>   Q  0.6645  12.9$  1.99$  10.62$
|599>   Q  0.6645  11.76$  1.55$  9.79$
|600>   Q  -1.3290  12.17$  2.1$  10.29$
|601>   Q  0.6645  1.96$  13.77$  19.84$
|602>   Q  0.6645  2.18$  13.1$  18.47$
|603>   Q  -1.3290  1.94$  13.16$  19.31$
|604>   Q  0.6645  12.5$  9.16$  20.56$
|605>   Q  0.6645  11.93$  7.69$  20.5$
|606>   Q  -1.3290  11.95$  8.54$  20.71$
|607>   Q  0.6645  11.94$  10.66$  17.14$
|608>   Q  0.6645  10.9$  11.93$  17.05$
|609>   Q  -1.3290  11.23$  11.12$  16.88$
|610>   Q  0.6645  7.84$  12.42$  2.94$
|611>   Q  0.6645  9.04$  11.83$  3.72$
|612>   Q  -1.3290  8.32$  12.3$  3.64$
|613>   Q  0.6645  14.35$  15.05$  18.72$
|614>   Q  0.6645  14.72$  15.79$  17.43$
|615>   Q  -1.3290  14.46$  15.75$  18.23$
|616>   Q  0.6645  15.9$  12.14$  5.9$
|617>   Q  0.6645  14.93$  13.03$  6.79$
|618>   Q  -1.3290  15.47$  12.4$  6.6$
|619>   Q  0.6645  7.39$  6.88$  14.32$
|620>   Q  0.6645  7.11$  8.13$  15.06$
|621>   Q  -1.3290  7.6$  7.61$  14.61$
|622>   Q  0.6645  5.33$  7.43$  7.55$
|623>   Q  0.6645  5.92$  6.35$  6.56$
|624>   Q  -1.3290  5.54$  7.09$  6.78$
|625>   Q  0.6645  9.6$  5.46$  10.82$
|626>   Q  0.6645  9.18$  6.24$  9.53$
|627>   Q  -1.3290  9.66$  6.07$  10.23$
|628>   Q  0.6645  15.56$  16.16$  12.79$
|629>   Q  0.6645  14.08$  16.53$  12.72$
|630>   Q  -1.3290  14.76$  16.23$  13.07$
|631>   Q  0.6645  3.57$  10.8$  7.34$
|632>   Q  0.6645  2.61$  9.69$  6.91$
|633>   Q  -1.3290  2.83$  10.46$  7.11$
|634>   Q  0.6645  4.45$  3.68$  11.15$
|635>   Q  0.6645  4.51$  5.21$  11.45$
|636>   Q  -1.3290  4.73$  4.51$  11.06$
|637>   Q  0.6645  2.54$  12.35$  10.45$
|638>   Q  0.6645  2.5$  11.65$  9.06$
|639>   Q  -1.3290  2.67$  11.74$  9.88$
|640>   Q  0.6645  6.77$  3.87$  4.72$
|641>   Q  0.6645  7.74$  4.45$  3.58$
|642>   Q  -1.3290  7.5$  3.9$  4.21$
|643>   Q  0.6645  9.96$  7.45$  13.85$
|644>   Q  0.6645  9.8$  6.76$  12.51$
|645>   Q  -1.3290  10.17$  6.89$  13.23$
|646>   Q  0.6645  9.08$  18.76$  8.62$
|647>   Q  0.6645  9.58$  17.38$  9.21$
|648>   Q  -1.3290  9.49$  18.22$  9.16$
|649>   Q  0.6645  13.88$  1.14$  13.11$
|650>   Q  0.6645  14.18$  0.46$  11.85$
|651>   Q  -1.3290  13.69$  0.68$  12.44$
|652>   Q  0.6645  21.65$  8.03$  12.73$
|653>   Q  0.6645  21.27$  9.45$  12.52$
|654>   Q  -1.3290  21.53$  8.81$  12.98$
|655>   Q  0.6645  9.46$  14.68$  18.6$
|656>   Q  0.6645  8.44$  15.22$  19.68$
|657>   Q  -1.3290  9.01$  15.28$  19.04$
|658>   Q  0.6645  8.03$  15.35$  15.72$
|659>   Q  0.6645  7.04$  14.66$  16.72$
|660>   Q  -1.3290  7.74$  14.72$  16.21$
|661>   Q  0.6645  9.63$  13.95$  16.81$
|662>   Q  0.6645  11.2$  14.26$  17.41$
|663>   Q  -1.3290  10.37$  13.88$  17.33$
|664>   Q  0.6645  19.23$  4.72$  14.24$
|665>   Q  0.6645  19.84$  5.13$  12.82$
|666>   Q  -1.3290  19.69$  4.62$  13.53$
|667>   Q  0.6645  8.26$  6.81$  16.44$
|668>   Q  0.6645  8.44$  7.02$  17.89$
|669>   Q  -1.3290  8.34$  6.56$  17.21$
|670>   Q  0.6645  2.7$  8.49$  8.69$
|671>   Q  0.6645  3.42$  7.8$  7.51$
|672>   Q  -1.3290  3.26$  7.99$  8.32$
|673>   Q  0.6645  4.26$  14.08$  17.47$
|674>   Q  0.6645  3.31$  13.38$  16.48$
|675>   Q  -1.3290  3.51$  13.86$  17.16$
|676>   Q  0.6645  13.15$  3.01$  1.95$
|677>   Q  0.6645  13.49$  4.04$  3.13$
|678>   Q  -1.3290  13.62$  3.35$  2.61$
|679>   Q  0.6645  9.19$  3.49$  17.87$
|680>   Q  0.6645  8.52$  4.66$  17$
|681>   Q  -1.3290  8.7$  3.83$  17.24$
|682>   Q  0.6645  19.03$  4.41$  8.71$
|683>   Q  0.6645  17.62$  5.24$  8.61$
|684>   Q  -1.3290  18.33$  4.82$  8.33$
|685> *
|686> 
|687>                          ****END OF INPUT****
================================================================================

                     *******************************
                     * Energy+Gradient Calculation *
                     *******************************

---------------------------------
CARTESIAN COORDINATES (ANGSTROEM)
---------------------------------
  C      9.190000   11.790000   11.560000
  H      8.760000   10.820000   11.780000
  H      8.510000   12.450000   11.040000
  C     10.470000   11.530000   10.700000
  H     10.330000   12.050000    9.680000
  H     11.240000   11.940000   11.300000
  C     10.840000   10.050000   10.400000
  H     10.030000    9.510000    9.940000
  H     10.980000    9.560000   11.390000
  C     12.160000    9.960000    9.520000
  H     12.310000   10.860000    8.860000
  H     11.980000    9.150000    8.780000
  O     13.320000    9.760000   10.340000
  H     13.340000    8.890000   10.780000
  O      9.560000   12.520000   12.800000
  H      8.760000   12.960000   13.070000
  O     10.660000   15.800000   13.640000
  H      9.960000   15.580000   13.030000
  H     11.340000   15.120000   13.720000
  O     13.850000   12.100000   11.680000
  H     14.060000   12.690000   10.990000
  H     13.650000   11.220000   11.240000
  O      6.860000   14.210000   12.490000
  H      6.230000   13.490000   12.460000
  H      6.480000   14.830000   13.120000
  O     12.020000   13.300000   13.540000
  H     12.630000   13.360000   12.800000
  H     11.140000   13.060000   13.150000
  O      9.590000    7.390000    6.880000
  H      9.100000    7.820000    6.120000
  H     10.190000    8.110000    7.130000
  O      5.840000   16.160000   10.720000
  H      6.070000   15.240000   10.900000
  H      6.020000   16.560000   11.550000
  O     12.920000    6.790000   10.330000
  H     11.990000    6.930000   10.180000
  H     13.040000    6.370000   11.200000
  O     12.900000   16.770000   11.490000
  H     12.080000   16.320000   11.790000
  H     12.550000   17.720000   11.490000
  O     15.910000    9.490000   12.360000
  H     15.890000   10.410000   12.230000
  H     15.220000    9.360000   13.030000
  O     11.150000    5.530000    5.300000
  H     10.750000    4.700000    4.930000
  H     10.550000    6.030000    5.810000
  O     12.810000   14.780000   16.070000
  H     13.530000   14.400000   16.500000
  H     12.490000   14.180000   15.380000
  O     12.480000    7.500000    7.210000
  H     13.330000    7.520000    7.600000
  H     12.240000    6.610000    6.940000
  O      9.410000   13.770000    7.110000
  H      9.800000   14.190000    7.870000
  H     10.060000   13.320000    6.560000
  O      6.840000   13.670000    9.480000
  H      6.390000   12.930000    9.840000
  H      6.430000   13.870000    8.620000
  O      7.580000    8.840000    5.300000
  H      7.660000    9.760000    5.610000
  H      6.940000    8.400000    5.840000
  O      6.420000    9.200000   12.680000
  H      7.070000    8.760000   13.230000
  H      6.680000    8.930000   11.790000
  O     14.990000   11.850000   14.180000
  H     14.730000   12.500000   14.920000
  H     14.440000   11.880000   13.430000
  O      8.980000   15.910000   11.350000
  H      8.370000   15.160000   11.180000
  H      8.530000   16.710000   11.140000
  O     15.520000    9.640000    8.400000
  H     14.890000    9.600000    9.090000
  H     15.360000   10.420000    7.820000
  O      6.030000   12.280000   15.000000
  H      6.540000   13.070000   14.850000
  H      5.130000   12.640000   15.090000
  O      9.870000    7.960000    3.740000
  H      9.380000    8.710000    4.030000
  H     10.770000    8.100000    3.980000
  O      9.390000   17.300000   15.860000
  H      9.860000   16.730000   15.170000
  H      9.570000   17.100000   16.780000
  O      5.370000   11.900000   11.330000
  H      4.470000   11.690000   11.120000
  H      5.770000   11.060000   11.500000
  O     12.140000   10.290000   14.150000
  H     12.050000   11.160000   13.670000
  H     11.690000   10.390000   15.040000
  O      5.540000   16.880000   13.890000
  H      4.690000   16.840000   14.370000
  H      6.070000   17.520000   14.320000
  Q     19.150000   13.550000   12.610000
  Q     20.290000   14.310000   12.010000
  Q     19.850000   13.630000   12.180000
  Q      4.590000    5.160000    4.420000
  Q      4.200000    5.500000    5.810000
  Q      4.600000    5.050000    5.280000
  Q      8.810000    6.480000    3.010000
  Q      8.980000    5.360000    1.890000
  Q      8.570000    5.880000    2.470000
  Q      6.030000   11.070000    7.110000
  Q      5.590000   10.020000    8.290000
  Q      5.490000   10.580000    7.600000
  Q      0.610000    8.240000    9.670000
  Q      0.580000    9.740000   10.030000
  Q      0.870000    9.030000    9.670000
  Q     10.330000    5.270000   14.650000
  Q      9.900000    4.480000   15.940000
  Q     10.410000    4.950000   15.440000
  Q      7.680000    0.870000    9.880000
  Q      7.330000   -0.500000    9.110000
  Q      7.830000    0.130000    9.470000
  Q     11.450000   18.920000   16.900000
  Q     11.150000   20.310000   17.370000
  Q     11.250000   19.740000   16.770000
  Q     15.970000   19.390000    6.120000
  Q     14.890000   19.310000    7.210000
  Q     15.190000   19.380000    6.390000
  Q     13.770000   10.630000    0.910000
  Q     13.300000    9.540000    1.820000
  Q     13.690000    9.830000    1.140000
  Q     18.130000   13.730000   14.780000
  Q     16.780000   13.370000   14.060000
  Q     17.580000   13.610000   14.100000
  Q     16.230000    9.860000   19.760000
  Q     15.560000    9.940000   18.420000
  Q     15.890000   10.260000   19.100000
  Q     10.080000    1.870000    4.880000
  Q      9.160000    3.040000    4.710000
  Q      9.880000    2.690000    4.880000
  Q     11.170000   19.250000   20.640000
  Q     10.320000   18.050000   20.210000
  Q     11.040000   18.430000   20.440000
  Q     14.610000    2.140000    9.650000
  Q     16.010000    2.090000   10.400000
  Q     15.170000    2.290000   10.280000
  Q      6.280000    7.700000    9.700000
  Q      4.930000    8.360000    9.470000
  Q      5.740000    8.340000    9.640000
  Q     14.010000   18.450000    8.770000
  Q     14.660000   19.520000    9.690000
  Q     14.610000   18.970000    9.050000
  Q      2.110000   16.110000   10.890000
  Q      0.770000   15.310000   10.440000
  Q      1.470000   15.490000   10.910000
  Q      7.300000   11.700000   20.590000
  Q      8.420000   11.520000   19.690000
  Q      8.100000   11.820000   20.360000
  Q     16.790000   16.720000   10.550000
  Q     16.010000   17.480000    9.610000
  Q     16.490000   16.850000    9.820000
  Q     10.240000   10.000000   17.930000
  Q     10.700000    9.000000   18.970000
  Q     10.230000    9.250000   18.320000
  Q     15.690000    4.800000   17.820000
  Q     15.210000    5.820000   18.730000
  Q     15.220000    5.080000   18.420000
  Q      2.870000   11.450000   15.010000
  Q      3.310000   12.500000   14.020000
  Q      3.130000   12.190000   14.800000
  Q     12.030000   18.230000    5.230000
  Q     13.490000   18.590000    5.020000
  Q     12.640000   18.590000    4.850000
  Q      7.730000   21.010000   14.820000
  Q      6.870000   22.150000   14.070000
  Q      7.380000   21.770000   14.680000
  Q     15.640000    1.380000    7.510000
  Q     15.680000    1.470000    6.040000
  Q     15.790000    1.740000    6.800000
  Q     16.760000   10.060000   16.200000
  Q     15.760000   10.590000   15.270000
  Q     15.970000   10.240000   15.990000
  Q     18.610000    3.450000    6.640000
  Q     18.120000    2.090000    6.100000
  Q     18.700000    2.710000    6.270000
  Q     16.820000    9.080000    7.420000
  Q     17.530000    9.390000    6.120000
  Q     17.270000    8.900000    6.750000
  Q      5.930000   10.350000   15.580000
  Q      5.510000    9.480000   16.700000
  Q      5.790000    9.640000   15.910000
  Q     17.600000   10.370000    4.130000
  Q     18.270000   11.370000    5.160000
  Q     17.700000   10.800000    4.880000
  Q     13.180000    7.970000   17.040000
  Q     12.980000    7.110000   18.310000
  Q     13.360000    7.700000   17.810000
  Q      8.540000   18.700000   12.710000
  Q      8.790000   18.780000   11.130000
  Q      8.350000   18.670000   11.850000
  Q     14.500000   -0.060000    9.510000
  Q     14.080000    0.000000    7.960000
  Q     14.530000    0.190000    8.700000
  Q      1.630000   12.800000   12.990000
  Q      1.970000   14.010000   12.040000
  Q      2.120000   13.260000   12.460000
  Q      3.880000    6.440000   13.370000
  Q      4.290000    7.430000   12.310000
  Q      4.280000    6.700000   12.670000
  Q      4.640000    1.880000    6.670000
  Q      5.080000    3.090000    6.070000
  Q      5.210000    2.320000    6.310000
  Q      9.970000    9.400000    1.660000
  Q     10.350000    8.850000    0.240000
  Q      9.860000    8.970000    0.940000
  Q     15.980000    7.440000    6.160000
  Q     15.290000    5.970000    6.520000
  Q     15.460000    6.750000    6.070000
  Q      5.820000   -0.420000   12.300000
  Q      6.170000    0.960000   11.740000
  Q      5.980000    0.410000   12.340000
  Q     18.110000   11.590000    8.590000
  Q     16.990000   12.300000    7.900000
  Q     17.760000   12.190000    8.160000
  Q      9.240000    4.090000   12.540000
  Q      7.880000    4.760000   12.690000
  Q      8.550000    4.470000   12.280000
  Q      8.260000    9.000000   18.930000
  Q      6.810000    8.730000   19.180000
  Q      7.630000    8.530000   19.150000
  Q      3.150000   15.220000    7.170000
  Q      2.390000   13.990000    6.510000
  Q      2.490000   14.690000    7.000000
  Q      5.620000    2.940000   16.030000
  Q      4.410000    3.680000   15.460000
  Q      5.130000    3.630000   15.880000
  Q     14.270000   14.760000    6.650000
  Q     13.470000   14.160000    7.760000
  Q     13.580000   14.380000    6.970000
  Q     13.640000   15.580000    9.790000
  Q     15.100000   15.390000    9.540000
  Q     14.310000   15.140000    9.550000
  Q     16.750000   15.240000   16.030000
  Q     15.500000   15.660000   15.170000
  Q     15.910000   15.410000   15.880000
  Q      8.840000   16.750000    2.180000
  Q      7.870000   17.390000    3.230000
  Q      8.070000   16.920000    2.520000
  Q     20.580000   12.330000    4.940000
  Q     20.240000   11.070000    4.250000
  Q     20.110000   11.680000    4.760000
  Q      9.980000    3.230000    6.600000
  Q     10.700000    3.950000    7.800000
  Q     10.150000    3.470000    7.420000
  Q     12.400000   16.700000    7.310000
  Q     12.120000   17.880000    8.360000
  Q     12.490000   17.130000    8.090000
  Q     12.040000   21.440000   13.830000
  Q     11.790000   20.320000   14.770000
  Q     11.960000   20.640000   14.050000
  Q      2.760000   18.290000   13.410000
  Q      2.920000   17.840000   11.990000
  Q      3.020000   18.330000   12.620000
  Q      8.280000    3.780000    7.810000
  Q      6.800000    3.210000    7.250000
  Q      7.380000    3.670000    7.710000
  Q     13.170000    9.220000   18.480000
  Q     13.760000   10.420000   19.030000
  Q     13.130000   10.010000   18.760000
  Q      8.430000   10.980000   17.140000
  Q      6.990000   11.230000   17.490000
  Q      7.790000   11.030000   17.660000
  Q      1.020000   12.650000    5.070000
  Q      1.950000   11.850000    6.010000
  Q      1.740000   12.410000    5.410000
  Q     21.010000   12.620000   13.420000
  Q     21.600000   11.710000   14.630000
  Q     21.560000   12.390000   14.070000
  Q     10.880000    7.990000   16.810000
  Q     11.060000    6.680000   16.030000
  Q     11.260000    7.460000   16.260000
  Q      7.900000   16.340000    5.390000
  Q      8.600000   15.420000    6.370000
  Q      8.300000   16.150000    6.110000
  Q     11.360000    7.240000    1.570000
  Q     12.450000    8.020000    0.670000
  Q     12.140000    7.450000    1.230000
  Q     18.090000   13.290000   17.340000
  Q     18.630000   14.650000   16.770000
  Q     18.180000   13.950000   16.770000
  Q      4.000000   16.780000    9.940000
  Q      2.840000   17.590000    9.140000
  Q      3.200000   17.100000    9.790000
  Q     10.270000   13.390000    0.480000
  Q      9.630000   12.070000    0.040000
  Q     10.160000   12.560000    0.510000
  Q      2.370000    5.250000   14.530000
  Q      2.430000    6.370000   15.450000
  Q      2.650000    5.960000   14.770000
  Q     10.500000    1.730000    8.090000
  Q      9.920000    0.630000    9.100000
  Q     10.510000    1.000000    8.570000
  Q      6.000000   15.460000    6.730000
  Q      5.590000   14.070000    6.390000
  Q      5.710000   14.710000    6.890000
  Q     14.420000   13.000000   18.980000
  Q     15.280000   13.660000   20.080000
  Q     14.580000   13.460000   19.670000
  Q      2.130000   16.100000   15.320000
  Q      1.920000   17.560000   15.530000
  Q      2.280000   16.920000   15.170000
  Q      6.370000   17.150000    9.290000
  Q      6.990000   17.380000    7.860000
  Q      6.450000   17.540000    8.510000
  Q      6.380000   19.240000   12.020000
  Q      4.930000   19.360000   12.530000
  Q      5.600000   19.600000   12.090000
  Q     17.950000   15.600000   12.130000
  Q     18.590000   16.930000   12.130000
  Q     17.950000   16.430000   12.240000
  Q     19.580000    6.990000    4.730000
  Q     18.860000    7.670000    3.540000
  Q     19.450000    7.190000    3.910000
  Q     14.540000    0.560000    4.110000
  Q     14.210000    2.130000    4.020000
  Q     14.280000    1.340000    4.340000
  Q     11.380000   15.650000    8.980000
  Q     10.300000   15.430000   10.160000
  Q     10.710000   15.300000    9.390000
  Q     13.560000   18.610000   17.950000
  Q     13.670000   20.160000   17.840000
  Q     13.970000   19.370000   18.000000
  Q      1.520000    6.460000   13.040000
  Q      1.010000    5.750000   11.800000
  Q      1.150000    6.420000   12.280000
  Q     10.080000   15.080000   20.550000
  Q     11.480000   15.260000   21.020000
  Q     10.680000   15.090000   21.130000
  Q     18.960000   13.630000    7.800000
  Q     18.920000   15.000000    7.070000
  Q     19.240000   14.410000    7.600000
  Q      6.770000    8.510000    3.610000
  Q      6.380000    8.830000    2.140000
  Q      6.340000    8.410000    2.910000
  Q     17.690000   17.220000   15.220000
  Q     17.980000   16.040000   14.340000
  Q     18.110000   16.540000   15.010000
  Q     20.550000    2.730000    8.980000
  Q     19.900000    2.930000   10.220000
  Q     20.200000    3.200000    9.510000
  Q     10.710000    2.490000   13.060000
  Q     11.130000    3.220000   11.800000
  Q     10.880000    3.170000   12.600000
  Q     15.070000    3.730000    7.240000
  Q     13.990000    4.640000    7.670000
  Q     14.750000    4.480000    7.450000
  Q     17.930000    9.040000    2.020000
  Q     16.680000    8.320000    2.460000
  Q     17.430000    8.670000    2.570000
  Q     15.720000   15.830000    1.940000
  Q     15.400000   14.380000    2.320000
  Q     15.650000   15.170000    2.450000
  Q     20.290000    6.410000   10.880000
  Q     18.900000    6.720000   11.380000
  Q     19.630000    6.380000   11.460000
  Q     14.450000    6.800000    2.320000
  Q     15.750000    6.370000    2.620000
  Q     15.240000    6.840000    2.220000
  Q     10.300000   11.440000    1.870000
  Q     11.200000   10.840000    3.070000
  Q     10.480000   10.940000    2.600000
  Q      6.850000   14.980000   21.580000
  Q      7.560000   13.890000   20.830000
  Q      7.150000   14.620000   20.890000
  Q     18.790000    7.730000    6.940000
  Q     18.860000    6.160000    7.200000
  Q     19.140000    6.940000    6.960000
  Q      0.420000    8.500000   14.760000
  Q      1.920000    8.640000   15.250000
  Q      1.070000    8.520000   15.360000
  Q      9.140000   21.200000   10.780000
  Q     10.510000   20.510000   11.140000
  Q      9.900000   21.090000   11.210000
  Q      2.600000    9.490000   10.860000
  Q      2.230000    8.310000   11.780000
  Q      2.730000    8.920000   11.490000
  Q     12.260000    5.860000   13.290000
  Q     12.270000    4.390000   12.860000
  Q     12.600000    5.150000   12.940000
  Q      5.180000   15.230000    4.580000
  Q      4.800000   16.300000    5.580000
  Q      5.260000   16.000000    4.910000
  Q     17.780000    5.750000    3.450000
  Q     16.760000    6.020000    4.550000
  Q     17.060000    5.620000    3.870000
  Q     20.630000   11.810000   11.460000
  Q     20.150000   10.810000   10.460000
  Q     20.650000   11.060000   11.090000
  Q     13.420000    4.100000   17.040000
  Q     12.130000    4.220000   16.030000
  Q     12.790000    3.850000   16.500000
  Q     13.290000    8.730000   14.500000
  Q     14.500000    9.150000   15.490000
  Q     14.080000    8.660000   14.880000
  Q      4.190000    9.910000   18.860000
  Q      4.380000    8.370000   18.450000
  Q      4.560000    9.220000   18.460000
  Q      3.040000    6.060000    9.010000
  Q      3.450000    4.820000    9.740000
  Q      2.940000    5.260000    9.280000
  Q      3.760000   18.300000    6.510000
  Q      4.680000   17.410000    7.470000
  Q      4.100000   17.580000    6.870000
  Q     11.980000   17.690000   18.800000
  Q     12.720000   16.880000   17.760000
  Q     12.160000   17.430000   18.020000
  Q      2.740000    9.310000   13.430000
  Q      3.950000    9.280000   14.430000
  Q      3.150000    9.320000   14.200000
  Q      8.080000   11.600000    5.420000
  Q      8.310000   12.130000    6.830000
  Q      8.070000   11.560000    6.290000
  Q      5.560000   19.670000    8.180000
  Q      5.120000   21.080000    8.040000
  Q      5.690000   20.490000    7.990000
  Q      4.970000    9.340000    3.680000
  Q      4.620000   10.160000    4.960000
  Q      4.480000    9.850000    4.190000
  Q      6.750000    5.640000   17.760000
  Q      5.560000    4.710000   17.610000
  Q      6.090000    5.180000   18.040000
  Q     15.040000    6.810000   14.910000
  Q     14.250000    5.590000   14.540000
  Q     14.950000    6.000000   14.730000
  Q      2.450000   15.640000   17.810000
  Q      1.490000   16.400000   18.460000
  Q      2.160000   16.330000   18.060000
  Q     13.920000    2.410000   15.190000
  Q     14.770000    2.880000   13.980000
  Q     14.420000    2.320000   14.520000
  Q     17.900000    9.180000   13.160000
  Q     19.200000    8.600000   13.570000
  Q     18.370000    8.770000   13.660000
  Q     15.560000   11.970000   17.160000
  Q     15.700000   13.600000   16.870000
  Q     15.320000   12.810000   16.970000
  Q     21.030000   15.020000    8.260000
  Q     22.630000   15.150000    8.100000
  Q     21.810000   15.370000    8.350000
  Q     10.770000    0.890000   15.150000
  Q     11.200000    2.060000   16.120000
  Q     11.200000    1.270000   15.830000
  Q      4.620000   12.490000    4.710000
  Q      6.000000   12.960000    4.040000
  Q      5.360000   12.940000    4.610000
  Q      8.400000   17.340000   19.160000
  Q      8.280000   18.860000   19.050000
  Q      8.470000   18.140000   19.440000
  Q     18.400000    1.840000   12.530000
  Q     16.980000    2.440000   12.660000
  Q     17.600000    1.860000   12.770000
  Q     20.820000    7.350000    8.840000
  Q     21.770000    6.060000    9.020000
  Q     21.210000    6.680000    9.260000
  Q      2.310000    7.960000    5.030000
  Q      1.690000    7.150000    6.150000
  Q      2.260000    7.730000    5.830000
  Q      6.090000    5.620000   13.430000
  Q      6.350000    4.600000   14.480000
  Q      6.580000    5.200000   13.960000
  Q     18.560000    6.920000   14.950000
  Q     18.170000    5.890000   16.140000
  Q     18.600000    6.210000   15.460000
  Q     18.170000   17.670000    5.690000
  Q     17.840000   16.380000    4.840000
  Q     17.640000   17.100000    5.260000
  Q     18.600000    9.130000    9.710000
  Q     19.560000    9.630000    8.610000
  Q     19.090000    9.690000    9.320000
  Q      6.760000    2.930000    9.860000
  Q      7.390000    3.220000   11.240000
  Q      7.110000    2.690000   10.600000
  Q     16.880000    3.640000   15.880000
  Q     16.020000    4.930000   15.870000
  Q     16.590000    4.370000   16.210000
  Q     10.370000   16.450000    6.140000
  Q     11.540000   15.560000    5.810000
  Q     11.190000   16.310000    6.020000
  Q     15.290000   19.370000   14.220000
  Q     13.950000   19.710000   13.930000
  Q     14.690000   19.430000   13.730000
  Q      6.420000   12.200000    1.000000
  Q      6.410000   13.660000    1.640000
  Q      6.680000   12.850000    1.480000
  Q     12.310000   11.950000    5.100000
  Q     12.360000   13.110000    6.010000
  Q     11.980000   12.490000    5.620000
  Q     13.470000   10.380000    3.860000
  Q     13.830000   11.690000    3.070000
  Q     13.330000   11.160000    3.520000
  Q     12.530000    8.130000    5.230000
  Q     12.800000    7.970000    3.650000
  Q     12.550000    8.360000    4.380000
  Q     15.670000   15.140000    4.600000
  Q     16.180000   15.860000    5.760000
  Q     15.780000   15.240000    5.410000
  Q     14.080000    6.240000    4.640000
  Q     12.610000    5.750000    4.380000
  Q     13.420000    6.000000    4.150000
  Q      7.090000    5.300000    9.120000
  Q      6.050000    5.690000   10.180000
  Q      6.710000    5.820000    9.660000
  Q      7.370000   19.730000    7.430000
  Q      8.780000   20.220000    6.740000
  Q      8.200000   19.670000    7.090000
  Q     12.280000   19.640000   10.580000
  Q     12.150000   19.760000   12.110000
  Q     12.090000   19.370000   11.350000
  Q     17.160000    7.050000   10.240000
  Q     17.000000    8.230000   11.180000
  Q     17.440000    7.700000   10.710000
  Q     16.110000    4.890000   10.340000
  Q     15.470000    5.460000    9.130000
  Q     15.990000    5.460000    9.770000
  Q     16.300000   12.420000    2.530000
  Q     14.950000   12.430000    1.540000
  Q     15.420000   12.490000    2.280000
  Q     21.840000    9.930000    7.720000
  Q     21.130000    9.740000    6.370000
  Q     21.200000    9.860000    7.210000
  Q      9.750000   20.170000   14.140000
  Q      9.190000   19.000000   15.080000
  Q      9.170000   19.670000   14.540000
  Q      5.350000   17.990000   16.850000
  Q      3.940000   17.610000   17.300000
  Q      4.770000   17.770000   17.410000
  Q     18.690000   12.790000    1.620000
  Q     18.500000   12.950000    3.110000
  Q     18.280000   12.700000    2.330000
  Q     15.650000    4.730000   13.090000
  Q     14.970000    3.820000   12.140000
  Q     15.510000    4.020000   12.720000
  Q      6.310000   14.970000   18.780000
  Q      5.460000   16.090000   18.180000
  Q      5.810000   15.320000   18.210000
  Q      0.270000   14.190000   14.940000
  Q      0.380000   15.010000   16.230000
  Q      0.420000   14.900000   15.390000
  Q     18.400000    8.920000   15.560000
  Q     19.310000    9.670000   16.590000
  Q     18.680000    9.160000   16.340000
  Q     12.010000   20.520000    7.960000
  Q     11.120000   19.540000    8.790000
  Q     11.790000   19.760000    8.300000
  Q     10.780000   15.730000    2.720000
  Q     10.990000   16.110000    1.250000
  Q     10.730000   16.240000    2.030000
  Q     19.360000   14.270000    4.820000
  Q     17.880000   13.990000    5.300000
  Q     18.520000   14.310000    4.820000
  Q      5.980000   19.580000   15.500000
  Q      7.310000   18.980000   16.050000
  Q      6.510000   18.950000   15.710000
  Q     18.360000    8.020000   18.110000
  Q     19.710000    7.860000   18.790000
  Q     18.880000    7.830000   18.760000
  Q     13.390000   12.740000   -0.540000
  Q     12.220000   12.590000    0.490000
  Q     13.040000   12.550000    0.220000
  Q      8.540000   19.410000    4.050000
  Q      8.310000   18.590000    5.390000
  Q      8.290000   18.740000    4.520000
  Q      8.420000   20.740000   17.740000
  Q      6.900000   20.320000   17.360000
  Q      7.730000   20.240000   17.570000
  Q     10.900000   13.730000    4.370000
  Q      9.530000   14.020000    3.800000
  Q     10.260000   14.190000    4.170000
  Q     12.210000    3.760000    9.160000
  Q     12.550000    5.290000    9.270000
  Q     12.400000    4.550000    8.860000
  Q     12.900000    1.990000   10.620000
  Q     11.760000    1.550000    9.790000
  Q     12.170000    2.100000   10.290000
  Q      1.960000   13.770000   19.840000
  Q      2.180000   13.100000   18.470000
  Q      1.940000   13.160000   19.310000
  Q     12.500000    9.160000   20.560000
  Q     11.930000    7.690000   20.500000
  Q     11.950000    8.540000   20.710000
  Q     11.940000   10.660000   17.140000
  Q     10.900000   11.930000   17.050000
  Q     11.230000   11.120000   16.880000
  Q      7.840000   12.420000    2.940000
  Q      9.040000   11.830000    3.720000
  Q      8.320000   12.300000    3.640000
  Q     14.350000   15.050000   18.720000
  Q     14.720000   15.790000   17.430000
  Q     14.460000   15.750000   18.230000
  Q     15.900000   12.140000    5.900000
  Q     14.930000   13.030000    6.790000
  Q     15.470000   12.400000    6.600000
  Q      7.390000    6.880000   14.320000
  Q      7.110000    8.130000   15.060000
  Q      7.600000    7.610000   14.610000
  Q      5.330000    7.430000    7.550000
  Q      5.920000    6.350000    6.560000
  Q      5.540000    7.090000    6.780000
  Q      9.600000    5.460000   10.820000
  Q      9.180000    6.240000    9.530000
  Q      9.660000    6.070000   10.230000
  Q     15.560000   16.160000   12.790000
  Q     14.080000   16.530000   12.720000
  Q     14.760000   16.230000   13.070000
  Q      3.570000   10.800000    7.340000
  Q      2.610000    9.690000    6.910000
  Q      2.830000   10.460000    7.110000
  Q      4.450000    3.680000   11.150000
  Q      4.510000    5.210000   11.450000
  Q      4.730000    4.510000   11.060000
  Q      2.540000   12.350000   10.450000
  Q      2.500000   11.650000    9.060000
  Q      2.670000   11.740000    9.880000
  Q      6.770000    3.870000    4.720000
  Q      7.740000    4.450000    3.580000
  Q      7.500000    3.900000    4.210000
  Q      9.960000    7.450000   13.850000
  Q      9.800000    6.760000   12.510000
  Q     10.170000    6.890000   13.230000
  Q      9.080000   18.760000    8.620000
  Q      9.580000   17.380000    9.210000
  Q      9.490000   18.220000    9.160000
  Q     13.880000    1.140000   13.110000
  Q     14.180000    0.460000   11.850000
  Q     13.690000    0.680000   12.440000
  Q     21.650000    8.030000   12.730000
  Q     21.270000    9.450000   12.520000
  Q     21.530000    8.810000   12.980000
  Q      9.460000   14.680000   18.600000
  Q      8.440000   15.220000   19.680000
  Q      9.010000   15.280000   19.040000
  Q      8.030000   15.350000   15.720000
  Q      7.040000   14.660000   16.720000
  Q      7.740000   14.720000   16.210000
  Q      9.630000   13.950000   16.810000
  Q     11.200000   14.260000   17.410000
  Q     10.370000   13.880000   17.330000
  Q     19.230000    4.720000   14.240000
  Q     19.840000    5.130000   12.820000
  Q     19.690000    4.620000   13.530000
  Q      8.260000    6.810000   16.440000
  Q      8.440000    7.020000   17.890000
  Q      8.340000    6.560000   17.210000
  Q      2.700000    8.490000    8.690000
  Q      3.420000    7.800000    7.510000
  Q      3.260000    7.990000    8.320000
  Q      4.260000   14.080000   17.470000
  Q      3.310000   13.380000   16.480000
  Q      3.510000   13.860000   17.160000
  Q     13.150000    3.010000    1.950000
  Q     13.490000    4.040000    3.130000
  Q     13.620000    3.350000    2.610000
  Q      9.190000    3.490000   17.870000
  Q      8.520000    4.660000   17.000000
  Q      8.700000    3.830000   17.240000
  Q     19.030000    4.410000    8.710000
  Q     17.620000    5.240000    8.610000
  Q     18.330000    4.820000    8.330000

----------------------------
CARTESIAN COORDINATES (A.U.)
----------------------------
  NO LB      ZA    FRAG     MASS         X           Y           Z
   0 C     6.0000    0    12.011   17.366583   22.279871   21.845234
   1 H     1.0000    0     1.008   16.554001   20.446837   22.260974
   2 H     1.0000    0     1.008   16.081569   23.527090   20.862577
   3 C     6.0000    0    12.011   19.785433   21.788542   20.220070
   4 H     1.0000    0     1.008   19.520871   22.771200   18.292549
   5 H     1.0000    0     1.008   21.240522   22.563330   21.353905
   6 C     6.0000    0    12.011   20.484631   18.991748   19.653152
   7 H     1.0000    0     1.008   18.953953   17.971296   18.783878
   8 H     1.0000    0     1.008   20.749193   18.065782   21.523981
   9 C     6.0000    0    12.011   22.979070   18.821672   17.990193
  10 H     1.0000    0     1.008   23.262529   20.522426   16.742974
  11 H     1.0000    0     1.008   22.638919   17.290994   16.591795
  12 O     8.0000    0    15.999   25.171152   18.443727   19.539768
  13 H     1.0000    0     1.008   25.208947   16.799665   20.371248
  14 O     8.0000    0    15.999   18.065782   23.659371   24.188495
  15 H     1.0000    0     1.008   16.554001   24.490851   24.698721
  16 O     8.0000    0    15.999   20.144481   29.857673   25.775864
  17 H     1.0000    0     1.008   18.821672   29.441933   24.623132
  18 H     1.0000    0     1.008   21.429494   28.572659   25.927043
  19 O     8.0000    0    15.999   26.172707   22.865686   22.072001
  20 H     1.0000    0     1.008   26.569549   23.980625   20.768090
  21 H     1.0000    0     1.008   25.794762   21.202727   21.240522
  22 O     8.0000    0    15.999   12.963521   26.853008   23.602679
  23 H     1.0000    0     1.008   11.772994   25.492406   23.545988
  24 H     1.0000    0     1.008   12.245425   28.024639   24.793207
  25 O     8.0000    0    15.999   22.714508   25.133358   25.586892
  26 H     1.0000    0     1.008   23.867241   25.246741   24.188495
  27 H     1.0000    0     1.008   21.051549   24.679823   24.849899
  28 O     8.0000    0    15.999   18.122474   13.965076   13.001316
  29 H     1.0000    0     1.008   17.196508   14.777658   11.565124
  30 H     1.0000    0     1.008   19.256309   15.325679   13.473747
  31 O     8.0000    0    15.999   11.036001   30.537974   20.257864
  32 H     1.0000    0     1.008   11.470638   28.799426   20.598015
  33 H     1.0000    0     1.008   11.376151   31.293865   21.826337
  34 O     8.0000    0    15.999   24.415262   12.831240   19.520871
  35 H     1.0000    0     1.008   22.657816   13.095802   19.237412
  36 H     1.0000    0     1.008   24.642029   12.037555   21.164933
  37 O     8.0000    0    15.999   24.377467   31.690707   21.712953
  38 H     1.0000    0     1.008   22.827892   30.840331   22.279871
  39 H     1.0000    0     1.008   23.716063   33.485947   21.712953
  40 O     8.0000    0    15.999   30.065543   17.933501   23.357015
  41 H     1.0000    0     1.008   30.027748   19.672049   23.111351
  42 H     1.0000    0     1.008   28.761632   17.687837   24.623132
  43 O     8.0000    0    15.999   21.070446   10.450186   10.015549
  44 H     1.0000    0     1.008   20.314556    8.881713    9.316350
  45 H     1.0000    0     1.008   19.936611   11.395049   10.979309
  46 O     8.0000    0    15.999   24.207392   27.930152   30.367899
  47 H     1.0000    0     1.008   25.567995   27.212056   31.180481
  48 H     1.0000    0     1.008   23.602679   26.796317   29.063988
  49 O     8.0000    0    15.999   23.583782   14.172946   13.624925
  50 H     1.0000    0     1.008   25.190049   14.210741   14.361919
  51 H     1.0000    0     1.008   23.130248   12.491090   13.114699
  52 O     8.0000    0    15.999   17.782323   26.021529   13.435953
  53 H     1.0000    0     1.008   18.519316   26.815214   14.872145
  54 H     1.0000    0     1.008   19.010645   25.171152   12.396603
  55 O     8.0000    0    15.999   12.925727   25.832556   17.914604
  56 H     1.0000    0     1.008   12.075350   24.434159   18.594905
  57 H     1.0000    0     1.008   12.150939   26.210501   16.289439
  58 O     8.0000    0    15.999   14.324124   16.705179   10.015549
  59 H     1.0000    0     1.008   14.475302   18.443727   10.601364
  60 H     1.0000    0     1.008   13.114699   15.873700   11.036001
  61 O     8.0000    0    15.999   12.132042   17.385480   23.961727
  62 H     1.0000    0     1.008   13.360364   16.554001   25.001077
  63 H     1.0000    0     1.008   12.623371   16.875254   22.279871
  64 O     8.0000    0    15.999   28.326995   22.393255   26.796317
  65 H     1.0000    0     1.008   27.835666   23.621577   28.194714
  66 H     1.0000    0     1.008   27.287645   22.449946   25.379022
  67 O     8.0000    0    15.999   16.969741   30.065543   21.448392
  68 H     1.0000    0     1.008   15.817008   28.648248   21.127138
  69 H     1.0000    0     1.008   16.119364   31.577324   21.051549
  70 O     8.0000    0    15.999   29.328550   18.216960   15.873700
  71 H     1.0000    0     1.008   28.138022   18.141371   17.177611
  72 H     1.0000    0     1.008   29.026193   19.690946   14.777658
  73 O     8.0000    0    15.999   11.395049   23.205837   28.345892
  74 H     1.0000    0     1.008   12.358809   24.698721   28.062433
  75 H     1.0000    0     1.008    9.694295   23.886138   28.515967
  76 O     8.0000    0    15.999   18.651597   15.042220    7.067576
  77 H     1.0000    0     1.008   17.725631   16.459515    7.615596
  78 H     1.0000    0     1.008   20.352350   15.306782    7.521110
  79 O     8.0000    0    15.999   17.744528   32.692262   29.971056
  80 H     1.0000    0     1.008   18.632700   31.615118   28.667145
  81 H     1.0000    0     1.008   18.084679   32.314317   31.709605
  82 O     8.0000    0    15.999   10.147829   22.487741   21.410597
  83 H     1.0000    0     1.008    8.447076   22.090899   21.013755
  84 H     1.0000    0     1.008   10.903720   20.900371   21.731851
  85 O     8.0000    0    15.999   22.941275   19.445282   26.739625
  86 H     1.0000    0     1.008   22.771200   21.089344   25.832556
  87 H     1.0000    0     1.008   22.090899   19.634255   28.421481
  88 O     8.0000    0    15.999   10.469083   31.898577   26.248296
  89 H     1.0000    0     1.008    8.862816   31.822988   27.155365
  90 H     1.0000    0     1.008   11.470638   33.108002   27.060878
  91 Q     0.6645    0     0.000   36.188255   25.605789   23.829447
  92 Q     0.6645    0     0.000   38.342543   27.041981   22.695611
  93 Q    -1.3290    0     0.000   37.511064   25.756967   23.016864
  94 Q     0.6645    0     0.000    8.673843    9.750987    8.352590
  95 Q     0.6645    0     0.000    7.936850   10.393494   10.979309
  96 Q    -1.3290    0     0.000    8.692740    9.543117    9.977754
  97 Q     0.6645    0     0.000   16.648487   12.245425    5.688076
  98 Q     0.6645    0     0.000   16.969741   10.128932    3.571582
  99 Q    -1.3290    0     0.000   16.194953   11.111590    4.667624
 100 Q     0.6645    0     0.000   11.395049   20.919268   13.435953
 101 Q     0.6645    0     0.000   10.563569   18.935056   15.665830
 102 Q    -1.3290    0     0.000   10.374596   19.993302   14.361919
 103 Q     0.6645    0     0.000    1.152733   15.571343   18.273652
 104 Q     0.6645    0     0.000    1.096041   18.405933   18.953953
 105 Q    -1.3290    0     0.000    1.644062   17.064227   18.273652
 106 Q     0.6645    0     0.000   19.520871    9.958857   27.684488
 107 Q     0.6645    0     0.000   18.708289    8.465973   30.122235
 108 Q    -1.3290    0     0.000   19.672049    9.354144   29.177372
 109 Q     0.6645    0     0.000   14.513097    1.644062   18.670494
 110 Q     0.6645    0     0.000   13.851693   -0.944863   17.215405
 111 Q    -1.3290    0     0.000   14.796556    0.245664   17.895706
 112 Q     0.6645    0     0.000   21.637364   35.753618   31.936372
 113 Q     0.6645    0     0.000   21.070446   38.380338   32.824543
 114 Q    -1.3290    0     0.000   21.259419   37.303194   31.690707
 115 Q     0.6645    0     0.000   30.178926   36.641790   11.565124
 116 Q     0.6645    0     0.000   28.138022   36.490612   13.624925
 117 Q    -1.3290    0     0.000   28.704940   36.622892   12.075350
 118 Q     0.6645    0     0.000   26.021529   20.087789    1.719651
 119 Q     0.6645    0     0.000   25.133358   18.027987    3.439302
 120 Q    -1.3290    0     0.000   25.870351   18.576008    2.154288
 121 Q     0.6645    0     0.000   34.260735   25.945940   27.930152
 122 Q     0.6645    0     0.000   31.709605   25.265638   26.569549
 123 Q    -1.3290    0     0.000   33.221385   25.719173   26.645138
 124 Q     0.6645    0     0.000   30.670255   18.632700   37.340988
 125 Q     0.6645    0     0.000   29.404139   18.783878   34.808755
 126 Q    -1.3290    0     0.000   30.027748   19.388590   36.093769
 127 Q     0.6645    0     0.000   19.048439    3.533788    9.221864
 128 Q     0.6645    0     0.000   17.309891    5.744767    8.900610
 129 Q    -1.3290    0     0.000   18.670494    5.083363    9.221864
 130 Q     0.6645    0     0.000   21.108241   36.377228   39.003947
 131 Q     0.6645    0     0.000   19.501974   34.109557   38.191365
 132 Q    -1.3290    0     0.000   20.862577   34.827653   38.626002
 133 Q     0.6645    0     0.000   27.608899    4.044014   18.235857
 134 Q     0.6645    0     0.000   30.254515    3.949528   19.653152
 135 Q    -1.3290    0     0.000   28.667145    4.327473   19.426385
 136 Q     0.6645    0     0.000   11.867480   14.550891   18.330343
 137 Q     0.6645    0     0.000    9.316350   15.798110   17.895706
 138 Q    -1.3290    0     0.000   10.847028   15.760316   18.216960
 139 Q     0.6645    0     0.000   26.475063   34.865447   16.572898
 140 Q     0.6645    0     0.000   27.703385   36.887454   18.311446
 141 Q    -1.3290    0     0.000   27.608899   35.848105   17.102022
 142 Q     0.6645    0     0.000    3.987322   30.443488   20.579118
 143 Q     0.6645    0     0.000    1.455089   28.931707   19.728741
 144 Q    -1.3290    0     0.000    2.777897   29.271858   20.616912
 145 Q     0.6645    0     0.000   13.795001   22.109796   38.909461
 146 Q     0.6645    0     0.000   15.911494   21.769645   37.208708
 147 Q    -1.3290    0     0.000   15.306782   22.336563   38.474824
 148 Q     0.6645    0     0.000   31.728502   31.596221   19.936611
 149 Q     0.6645    0     0.000   30.254515   33.032413   18.160268
 150 Q    -1.3290    0     0.000   31.161584   31.841885   18.557111
 151 Q     0.6645    0     0.000   19.350796   18.897261   33.882790
 152 Q     0.6645    0     0.000   20.220070   17.007535   35.848105
 153 Q    -1.3290    0     0.000   19.331898   17.479967   34.619783
 154 Q     0.6645    0     0.000   29.649803    9.070685   33.674920
 155 Q     0.6645    0     0.000   28.742734   10.998206   35.394570
 156 Q    -1.3290    0     0.000   28.761632    9.599809   34.808755
 157 Q     0.6645    0     0.000    5.423514   21.637364   28.364789
 158 Q     0.6645    0     0.000    6.254994   23.621577   26.493960
 159 Q    -1.3290    0     0.000    5.914843   23.035762   27.967947
 160 Q     0.6645    0     0.000   22.733405   34.449707    9.883268
 161 Q     0.6645    0     0.000   25.492406   35.130009    9.486425
 162 Q    -1.3290    0     0.000   23.886138   35.130009    9.165172
 163 Q     0.6645    0     0.000   14.607583   39.703146   28.005741
 164 Q     0.6645    0     0.000   12.982419   41.857434   26.588447
 165 Q    -1.3290    0     0.000   13.946179   41.139338   27.741180
 166 Q     0.6645    0     0.000   29.555317    2.607822   14.191843
 167 Q     0.6645    0     0.000   29.630906    2.777897   11.413946
 168 Q    -1.3290    0     0.000   29.838776    3.288123   12.850138
 169 Q     0.6645    0     0.000   31.671810   19.010645   30.613563
 170 Q     0.6645    0     0.000   29.782084   20.012200   28.856118
 171 Q    -1.3290    0     0.000   30.178926   19.350796   30.216721
 172 Q     0.6645    0     0.000   35.167803    6.519555   12.547782
 173 Q     0.6645    0     0.000   34.241838    3.949528   11.527329
 174 Q    -1.3290    0     0.000   35.337879    5.121158   11.848583
[...]
 368   Q   :   -0.187989671   -0.005965128   -0.199114346
 369   Q   :    0.250602938    0.022255533   -0.038449468
 370   Q   :   -0.076750487   -0.022736935    0.249460774
 371   Q   :   -0.226109911    0.019766638   -0.146934081
 372   Q   :    0.204674315   -0.203813480   -0.044737656
 373   Q   :    0.016704985    0.191567210    0.187732093
 374   Q   :   -0.053536115    0.174476887   -0.195592030
 375   Q   :   -0.179792155   -0.199092792    0.105238084
 376   Q   :    0.240734969    0.032979348    0.083446683
 377   Q   :   -0.110077035    0.218883809    0.115270673
 378   Q   :   -0.117206143   -0.257251461   -0.026710405
 379   Q   :    0.239001245    0.035978683   -0.086950508
 380   Q   :   -0.040232908   -0.272765335   -0.103028130
 381   Q   :   -0.141328170    0.065049891    0.209717647
 382   Q   :    0.185332750    0.204155943   -0.119116900
 383   Q   :    0.244861027    0.060352341   -0.140262545
 384   Q   :   -0.086362894    0.150832184    0.225541194
 385   Q   :   -0.151057516   -0.220639068   -0.084703439
 386   Q   :   -0.016710550    0.263097590    0.123189539
 387   Q   :   -0.170486723   -0.057886362   -0.206737307
 388   Q   :    0.197127803   -0.196980797    0.084395089
 389   Q   :    0.194574247    0.092239819    0.166311413
 390   Q   :   -0.179992241    0.110074680   -0.130349958
 391   Q   :   -0.006768086   -0.205645277   -0.030244411
 392   Q   :   -0.231993759    0.018108461   -0.107191523
 393   Q   :    0.101093503    0.139673566    0.175875371
 394   Q   :    0.116627524   -0.164622332   -0.069508596
 395   Q   :   -0.119599506    0.203678088    0.125827479
 396   Q   :   -0.067255293   -0.264390461    0.002177525
 397   Q   :    0.178224747    0.060436963   -0.120006493
 398   Q   :    0.047881457    0.258203024   -0.079772170
 399   Q   :    0.198126407   -0.157805687    0.176148967
 400   Q   :   -0.255107530   -0.109638580   -0.100061505
 401   Q   :   -0.100557035    0.234832499   -0.101036297
 402   Q   :    0.184202971   -0.046500658    0.193912849
 403   Q   :   -0.097836793   -0.178477239   -0.094943032
 404   Q   :   -0.043931935    0.084411125    0.253122654
 405   Q   :    0.202858869   -0.185711166   -0.085569044
 406   Q   :   -0.165242984    0.087389886   -0.175111949
 407   Q   :   -0.127592153   -0.007455103   -0.225239378
 408   Q   :    0.278553535   -0.016634666    0.071084189
 409   Q   :   -0.147164686    0.026358086    0.150498594
 410   Q   :    0.007998961    0.000829111   -0.256093798
 411   Q   :    0.087390731    0.209250489    0.186453058
 412   Q   :   -0.087293378   -0.216669726    0.083403335
 413   Q   :   -0.062010581   -0.260897028    0.057203416
 414   Q   :   -0.233363632    0.209264988    0.021959664
 415   Q   :    0.281866086    0.065569445   -0.080041670
 416   Q   :    0.153597875   -0.143988947   -0.141187789
 417   Q   :    0.066282290    0.108774554    0.272351676
 418   Q   :   -0.227128517    0.047095571   -0.127798461
 419   Q   :    0.204705187    0.145357123   -0.112811098
 420   Q   :   -0.191743731   -0.163793006   -0.166951997
 421   Q   :   -0.018466563    0.015252806    0.287482346
 422   Q   :    0.023746353    0.272245192    0.065091866
 423   Q   :   -0.253576491   -0.134633572   -0.062605543
 424   Q   :    0.229982870   -0.131604987   -0.002761765
 425   Q   :    0.089824190   -0.294302973   -0.094457271
 426   Q   :   -0.301844258    0.002504864    0.171240706
 427   Q   :    0.204458820    0.295198947   -0.071286294
 428   Q   :   -0.170979977    0.043959572    0.222554704
 429   Q   :    0.096718687    0.186942790   -0.169091048
 430   Q   :    0.074651724   -0.235631176   -0.037840500
 431   Q   :   -0.170300720    0.174096009   -0.210196649
 432   Q   :    0.264130095   -0.045509655   -0.033093713
 433   Q   :   -0.098380129   -0.124920192    0.225463166
 434   Q   :    0.076782951   -0.227950706    0.061984403
 435   Q   :    0.118564325    0.223341308   -0.020921577
 436   Q   :   -0.191939427    0.000348757   -0.031009894
 437   Q   :   -0.232871720   -0.121466410   -0.035172243
 438   Q   :    0.249383602   -0.080232043   -0.086462539
 439   Q   :   -0.004852645    0.204559990    0.124162496
 440   Q   :   -0.141502257   -0.094757718   -0.212558523
 441   Q   :   -0.022772717    0.286520304    0.085566873
 442   Q   :    0.160493920   -0.190724247    0.124841687
 443   Q   :   -0.223716413   -0.144492454    0.025474767
 444   Q   :    0.201923096    0.002514450   -0.197937850
 445   Q   :    0.023190326    0.134656422    0.165801735
 446   Q   :   -0.030078713   -0.253543664   -0.107506485
 447   Q   :   -0.061795040    0.241299680   -0.142011785
 448   Q   :    0.081528552    0.016036189    0.254526464
 449   Q   :    0.290460444    0.003759084   -0.106286422
 450   Q   :   -0.189741735    0.191987680   -0.056460043
 451   Q   :   -0.095481874   -0.203550465    0.159732259
 452   Q   :   -0.106306658    0.202918992   -0.130466973
 453   Q   :    0.183987578   -0.192175154   -0.087400766
 454   Q   :   -0.067880258   -0.006676896    0.205466029
 455   Q   :   -0.002517851    0.064296687   -0.288779488
 456   Q   :   -0.181217818   -0.183031932    0.083716075
 457   Q   :    0.177194960    0.113940737    0.192297533
 458   Q   :   -0.173526262    0.135527324   -0.179423052
 459   Q   :   -0.095414664   -0.213518893    0.168693687
 460   Q   :    0.266700226    0.065653659    0.017600619
 461   Q   :   -0.021716843    0.227523514   -0.148391338
 462   Q   :   -0.142329995   -0.084117177    0.218862882
 463   Q   :    0.167950483   -0.130293915   -0.061089076
 464   Q   :    0.171795564    0.160116819    0.125419462
 465   Q   :    0.080367450   -0.227737529   -0.127042014
 466   Q   :   -0.249628025    0.083041856   -0.000130221
 467   Q   :   -0.160572759   -0.192457735    0.119907796
 468   Q   :    0.144859748   -0.032830199   -0.227213989
 469   Q   :    0.009447024    0.215485363    0.105133273
 470   Q   :   -0.122716159    0.086060712   -0.237269477
 471   Q   :    0.066430429    0.160528584    0.181309413
 472   Q   :    0.049361805   -0.238843348    0.059831504
 473   Q   :    0.088847661   -0.241756757   -0.120760642
 474   Q   :   -0.171278379    0.156934612   -0.095581909
 475   Q   :    0.094911723    0.066748926    0.217564760
 476   Q   :   -0.275571223    0.032265766    0.045364678
 477   Q   :    0.105247942   -0.254669528   -0.061106333
 478   Q   :    0.164434322    0.214945920    0.007303377
 479   Q   :    0.261760095   -0.014179690    0.242300420
 480   Q   :   -0.267789554    0.112639197    0.098214373
 481   Q   :    0.012436353   -0.102305690   -0.339077251
 482   Q   :   -0.096992732   -0.219011138   -0.168279041
 483   Q   :   -0.094665027    0.247465779    0.046434668
 484   Q   :    0.183881549   -0.027767363    0.109572703
 485   Q   :    0.127741456   -0.189429388   -0.187070548
 486   Q   :    0.137234013    0.216988295    0.126619923
 487   Q   :   -0.271781719   -0.041067806    0.066641741
 488   Q   :    0.053622012   -0.242659988    0.097827553
 489   Q   :    0.154152695    0.157086053   -0.147521699
 490   Q   :   -0.202919399    0.087535438    0.040087155
 491   Q   :   -0.010495614   -0.072697078    0.239997644
 492   Q   :    0.073484539   -0.114310503   -0.230406425
 493   Q   :   -0.055621766    0.192509761   -0.009829396
 494   Q   :   -0.030181674   -0.027419913   -0.285705761
 495   Q   :    0.150074836    0.224746585    0.122219379
 496   Q   :   -0.119148281   -0.202594496    0.165735038
 497   Q   :    0.197367049    0.073131795    0.162113970
 498   Q   :   -0.225793150   -0.077126009    0.067784489
 499   Q   :    0.032280374   -0.002928128   -0.236379452
 500   Q   :    0.124798004   -0.181897944   -0.178755815
 501   Q   :   -0.218710236   -0.038762190    0.164573268
 502   Q   :    0.103846162    0.222594165    0.017723311
 503   Q   :   -0.213148917    0.013665916    0.089849142
 504   Q   :    0.180952784    0.180678576   -0.108215237
 505   Q   :    0.034620855   -0.194010146    0.012240366
 506   Q   :    0.065375691    0.111544179   -0.264524873
 507   Q   :    0.022974163    0.137599677    0.220047754
 508   Q   :   -0.090233383   -0.238588010    0.041224088
 509   Q   :   -0.094185880   -0.203889698   -0.149670973
 510   Q   :   -0.160909823    0.179396983    0.156703547
 511   Q   :    0.253985333    0.029375363   -0.009209009
 512   Q   :    0.037151182   -0.225862025    0.210608147
 513   Q   :   -0.190143691   -0.006953751   -0.222120744
 514   Q   :    0.139838566    0.231718962    0.020682935
 515   Q   :    0.213527641   -0.020152119    0.056943884
 516   Q   :   -0.136406373   -0.019572935   -0.228715302
 517   Q   :   -0.072011191    0.028399587    0.178698868
 518   Q   :    0.255219543    0.023809933    0.180073509
 519   Q   :   -0.004375549   -0.040750901   -0.287615347
 520   Q   :   -0.244003773    0.019241563    0.098576029
 521   Q   :    0.189914399    0.153642052   -0.123870609
 522   Q   :    0.005966906   -0.202254981    0.162689356
 523   Q   :   -0.191136362    0.055243676   -0.038313758
 524   Q   :    0.181694707    0.070087452   -0.202948114
 525   Q   :   -0.269036668   -0.046988730   -0.058372820
 526   Q   :    0.077763745   -0.014118085    0.262331399
 527   Q   :    0.169879883    0.040277845   -0.259784570
 528   Q   :    0.091887576    0.082830187    0.248931942
 529   Q   :   -0.248065110   -0.123325756    0.005150864
 530   Q   :    0.039417380    0.270335489    0.124768395
 531   Q   :   -0.208362206   -0.059832951   -0.215409396
 532   Q   :    0.172360919   -0.198977449    0.083123453
 533   Q   :    0.174578241   -0.118189347    0.198383452
 534   Q   :   -0.107273301    0.242594295    0.005222801
 535   Q   :   -0.063832490   -0.123721429   -0.194645483
 536   Q   :   -0.053137790   -0.253400467   -0.134892567
 537   Q   :   -0.014356992    0.019459567    0.294020675
 538   Q   :    0.061234726    0.230851835   -0.163674306
 539   Q   :   -0.082682550   -0.063459126   -0.233188968
 540   Q   :    0.218294039    0.183957777    0.075201044
 541   Q   :   -0.124933406   -0.121262969    0.168446757
 542   Q   :    0.056355363    0.257519486   -0.095590365
 543   Q   :   -0.209491956   -0.049914548    0.164467289
 544   Q   :    0.160325834   -0.188112327   -0.079892697
 545   Q   :    0.022828245   -0.178660956    0.196324686
 546   Q   :    0.097873393   -0.073026667   -0.290157848
 547   Q   :   -0.107291737    0.253099604    0.088317736
 548   Q   :    0.301745041   -0.023686142    0.006660398
 549   Q   :   -0.187705311   -0.110168067    0.160981197
 550   Q   :   -0.110956739    0.128209250   -0.169512406
 551   Q   :   -0.175558677    0.220373031   -0.059794097
 552   Q   :    0.232083075    0.020840885    0.099363337
 553   Q   :   -0.047674207   -0.236274973   -0.044317866
 554   Q   :   -0.164301767    0.064128959   -0.214586302
 555   Q   :    0.311477159    0.021185962   -0.004166889
 556   Q   :   -0.148353590   -0.089795833    0.225633008
 557   Q   :    0.104741816    0.067313764   -0.256228892
 558   Q   :   -0.256452855    0.023566029    0.070350286
 559   Q   :    0.148532197   -0.080190255    0.180840746
 560   Q   :    0.087691354    0.236243321   -0.146219780
 561   Q   :    0.013015217   -0.034819226    0.247330209
 562   Q   :   -0.095845133   -0.192175510   -0.101066837
 563   Q   :    0.216198809    0.166368498    0.059385432
 564   Q   :   -0.271096367    0.035852865   -0.071564328
 565   Q   :    0.055621549   -0.192384570    0.012674435
 566   Q   :    0.240770372   -0.183159274    0.063931680
 567   Q   :   -0.244224188   -0.068644868   -0.139428791
 568   Q   :   -0.000017155    0.260771914    0.073209759
 569   Q   :   -0.062024239   -0.234614836    0.092614088
 570   Q   :    0.043598388    0.222555490    0.132467083
 571   Q   :    0.011423854    0.015775639   -0.227924301
 572   Q   :    0.289117157   -0.053551443    0.108183018
 573   Q   :   -0.105621117   -0.179488536   -0.151334618
 574   Q   :   -0.170194542    0.223675919    0.049607795
 575   Q   :    0.012043522    0.263421927    0.203155883
 576   Q   :    0.064829667   -0.007609693   -0.252116881
 577   Q   :   -0.086329561   -0.260233098    0.053545330
 578   Q   :    0.204652950    0.198291321   -0.058610710
 579   Q   :    0.009116485   -0.266888070   -0.083746338
 580   Q   :   -0.210030302    0.066468899    0.152291000
 581   Q   :    0.203424381   -0.131935698    0.067859473
 582   Q   :   -0.089584509    0.216951343    0.052225557
 583   Q   :   -0.108616547   -0.084540896   -0.133727927
 584   Q   :   -0.140816321    0.027763957   -0.217717318
 585   Q   :    0.213910460   -0.147056615    0.026751199
 586   Q   :   -0.077138741    0.123887658    0.202769920
 587   Q   :   -0.032310689   -0.225926659    0.129830726
 588   Q   :    0.074686235   -0.006066981   -0.269359225
 589   Q   :   -0.043733888    0.238840892    0.143829203
 590   Q   :    0.135124225   -0.071303646   -0.227971075
 591   Q   :   -0.173448189    0.210212569    0.058550960
 592   Q   :    0.034332244   -0.132233883    0.162097693
 593   Q   :   -0.093064957   -0.261681494   -0.105123848
 594   Q   :   -0.169095923    0.154167649    0.141316987
 595   Q   :    0.272061714    0.108681686   -0.038884317
 596   Q   :   -0.066377157    0.094538574    0.246574674
 597   Q   :    0.123910240   -0.240628935   -0.055010147
 598   Q   :   -0.061123556    0.145067228   -0.191416478
 599   Q   :   -0.019711674   -0.203343417    0.188367227
 600   Q   :   -0.159315468    0.041699046   -0.222451352
 601   Q   :    0.181896104    0.161555496    0.024824831
 602   Q   :    0.272254879   -0.024484889   -0.104195769
 603   Q   :   -0.232948494    0.108870111   -0.130349717
 604   Q   :   -0.041109291   -0.082898074    0.235353326
 605   Q   :    0.231661324    0.109275951    0.074504095
 606   Q   :   -0.070283464   -0.283807614   -0.066092382
 607   Q   :   -0.170374969    0.169195877   -0.004159570
 608   Q   :   -0.101899185   -0.242438972    0.033104588
 609   Q   :   -0.087523305    0.229455460    0.131133911
 610   Q   :    0.194267619   -0.007155598   -0.164740526
 611   Q   :   -0.049037691    0.209577472    0.182636593
 612   Q   :   -0.066623527   -0.018232745   -0.279606352
 613   Q   :    0.114863194   -0.187042772    0.087275959
 614   Q   :   -0.218171757    0.001447487    0.145192083
 615   Q   :    0.061479498    0.163470782   -0.185129889
 616   Q   :    0.139827644   -0.169885042    0.042310099
 617   Q   :   -0.076259466    0.177609940    0.186696827
 618   Q   :   -0.151488049   -0.038962353   -0.264461618
 619   Q   :    0.223726523   -0.129871157    0.072470515
 620   Q   :   -0.118982928    0.161370945   -0.157957855
 621   Q   :    0.021816477   -0.283316128    0.012714167
 622   Q   :    0.097404380    0.112807246    0.151259974
 623   Q   :    0.077816749    0.156999182    0.205930671
 624   Q   :    0.217745500   -0.085301516   -0.253201658
 625   Q   :   -0.300381356   -0.081232918    0.036035976
 626   Q   :    0.038159660   -0.283069932   -0.109228441
 627   Q   :   -0.099081877    0.211065735   -0.170550331
 628   Q   :    0.068689412    0.065420757    0.284677531
 629   Q   :    0.122253937   -0.183176564   -0.108834355
 630   Q   :   -0.167737785   -0.028816868    0.200195520
 631   Q   :    0.047737709    0.217294376   -0.099852059
 632   Q   :    0.087463470    0.212698203   -0.168729451
 633   Q   :   -0.218127269   -0.017588752    0.143622443
 634   Q   :    0.127407298   -0.198252277    0.019081200
 635   Q   :   -0.187584213    0.018521337   -0.140427374
 636   Q   :    0.208076044    0.098871409    0.023439868
 637   Q   :   -0.007970356   -0.121232700    0.115596269
 638   Q   :   -0.159876484    0.030792174    0.228500113
 639   Q   :    0.040926809    0.142479391   -0.192039228
 640   Q   :    0.122546663   -0.190696415   -0.027736193
 641   Q   :   -0.032152159    0.100765214   -0.285845141
 642   Q   :    0.038866816    0.166275049    0.222423402
 643   Q   :    0.006593412   -0.257463084    0.066094394
 644   Q   :   -0.190259875    0.170641351    0.115446201
 645   Q   :    0.052843743   -0.059987242   -0.256145947
 646   Q   :    0.138858469   -0.105959025    0.143822930
 647   Q   :    0.254424175    0.058092534    0.091199875
 648   Q   :   -0.052652856   -0.153149612   -0.211182083
 649   Q   :   -0.192249259    0.092236424    0.118681629
 650   Q   :   -0.160709716   -0.098898231   -0.203050187
 651   Q   :   -0.059966117    0.201842487    0.155302639
 652   Q   :    0.215279151   -0.103560856    0.035775412
 653   Q   :    0.168295429   -0.096258475    0.201274396
 654   Q   :   -0.033292366    0.233617144   -0.079848738
 655   Q   :   -0.140112489   -0.157354678   -0.118186868
 656   Q   :    0.178026077   -0.103161732    0.103875087
 657   Q   :   -0.212315023    0.133821519    0.088682854
 658   Q   :    0.026140551   -0.029987893   -0.189619647

Difference to translation invariance:
           :    0.0003954590    0.0004368997    0.0001720698

Difference to rotation invariance:
           :   -0.0030401009    0.0066807573    0.0026781148

Norm of the cartesian gradient     ...    6.5373206564
RMS gradient                       ...    0.1471384625
MAX gradient                       ...    0.3390772509

-------
TIMINGS
-------

Total SCF gradient time            ...      135.643 sec

One electron gradient       ....      23.547 sec  ( 17.4%)
RI-J Coulomb gradient       ....       6.869 sec  (  5.1%)
COSX gradient               ....      78.403 sec  ( 57.8%)
XC gradient                 ....      10.867 sec  (  8.0%)

Maximum memory used throughout the entire SCFGRAD-calculation: 597.6 MB

                            ***************************************
                            *     ORCA property calculations      *
                            ***************************************

                                    ---------------------
                                    Active property flags
                                    ---------------------
   (+) Dipole Moment


------------------------------------------------------------------------------
                       ORCA ELECTRIC PROPERTIES CALCULATION
------------------------------------------------------------------------------

Dipole Moment Calculation                       ... on
Quadrupole Moment Calculation                   ... off
Polarizability Calculation                      ... off
GBWName                                         ... final000.orca.gbw
Electron density                                ... final000.orca.scfp
The origin for moment calculation is the CENTER OF MASS  = (19.489293, 22.300896 20.717075)

-------------
DIPOLE MOMENT
-------------
                                X             Y             Z
Electronic contribution:      0.96085       0.02061       1.71464
Nuclear contribution   :    -18.09060       3.07843     -14.41475
                        -----------------------------------------
Total Dipole Moment    :    -17.12975       3.09904     -12.70011
                        -----------------------------------------
Magnitude (a.u.)       :     21.54820
Magnitude (Debye)      :     54.77118



--------------------
Rotational spectrum 
--------------------
 
Rotational constants in cm-1:     0.002515     0.001548     0.001194 
Rotational constants in MHz :    75.407422    46.415800    35.790679 

 Dipole components along the rotational axes: 
x,y,z [a.u.] :    -0.988300   -21.040485     4.543816 
x,y,z [Debye]:    -2.512059   -53.480663    11.549463 

 

Timings for individual modules:

Sum of individual times         ...      573.778 sec (=   9.563 min)
GTO integral calculation        ...       11.115 sec (=   0.185 min)   1.9 %
SCF iterations                  ...      423.089 sec (=   7.051 min)  73.7 %
SCF Gradient evaluation         ...      139.574 sec (=   2.326 min)  24.3 %
                             ****ORCA TERMINATED NORMALLY****
TOTAL RUN TIME: 0 days 0 hours 9 minutes 41 seconds 139 msec
