
                                 *****************
                                 * O   R   C   A *
                                 *****************

                                            #,                                       
                                            ###                                      
                                            ####                                     
                                            #####                                    
                                            ######                                   
                                           ########,                                 
                                     ,,################,,,,,                         
                               ,,#################################,,                 
                          ,,##########################################,,             
                       ,#########################################, ''#####,          
                    ,#############################################,,   '####,        
                  ,##################################################,,,,####,       
                ,###########''''           ''''###############################       
              ,#####''   ,,,,##########,,,,          '''####'''          '####       
            ,##' ,,,,###########################,,,                        '##       
           ' ,,###''''                  '''############,,,                           
         ,,##''                                '''############,,,,        ,,,,,,###''
      ,#''                                            '''#######################'''  
     '                                                          ''''####''''         
             ,#######,   #######,   ,#######,      ##                                
            ,#'     '#,  ##    ##  ,#'     '#,    #''#        ######   ,####,        
            ##       ##  ##   ,#'  ##            #'  '#       #        #'  '#        
            ##       ##  #######   ##           ,######,      #####,   #    #        
            '#,     ,#'  ##    ##  '#,     ,#' ,#      #,         ##   #,  ,#        
             '#######'   ##     ##  '#######'  #'      '#     #####' # '####'        



                  #######################################################
                  #                        -***-                        #
                  #          Department of theory and spectroscopy      #
                  #    Directorship and core code : Frank Neese         #
                  #        Max Planck Institute fuer Kohlenforschung    #
                  #                Kaiser Wilhelm Platz 1               #
                  #                 D-45470 Muelheim/Ruhr               #
                  #                      Germany                        #
                  #                                                     #
                  #                  All rights reserved                #
                  #                        -***-                        #
                  #######################################################


                         Program Version 5.0.3 -  RELEASE  -


 With contributions from (in alphabetic order):
   Daniel Aravena         : Magnetic Suceptibility
   Michael Atanasov       : Ab Initio Ligand Field Theory (pilot matlab implementation)
   Alexander A. Auer      : GIAO ZORA, VPT2 properties, NMR spectrum
   Ute Becker             : Parallelization
   Giovanni Bistoni       : ED, misc. LED, open-shell LED, HFLD
   Martin Brehm           : Molecular dynamics
   Dmytro Bykov           : SCF Hessian
   Vijay G. Chilkuri      : MRCI spin determinant printing, contributions to CSF-ICE
   Dipayan Datta          : RHF DLPNO-CCSD density
   Achintya Kumar Dutta   : EOM-CC, STEOM-CC
   Dmitry Ganyushin       : Spin-Orbit,Spin-Spin,Magnetic field MRCI
   Miquel Garcia          : C-PCM and meta-GGA Hessian, CC/C-PCM, Gaussian charge scheme
   Yang Guo               : DLPNO-NEVPT2, F12-NEVPT2, CIM, IAO-localization
   Andreas Hansen         : Spin unrestricted coupled pair/coupled cluster methods
   Benjamin Helmich-Paris : MC-RPA, TRAH-SCF, COSX integrals
   Lee Huntington         : MR-EOM, pCC
   Robert Izsak           : Overlap fitted RIJCOSX, COSX-SCS-MP3, EOM
   Marcus Kettner         : VPT2
   Christian Kollmar      : KDIIS, OOCD, Brueckner-CCSD(T), CCSD density, CASPT2, CASPT2-K
   Simone Kossmann        : Meta GGA functionals, TD-DFT gradient, OOMP2, MP2 Hessian
   Martin Krupicka        : Initial AUTO-CI
   Lucas Lang             : DCDCAS
   Marvin Lechner         : AUTO-CI (C++ implementation), FIC-MRCC
   Dagmar Lenk            : GEPOL surface, SMD
   Dimitrios Liakos       : Extrapolation schemes; Compound Job, initial MDCI parallelization
   Dimitrios Manganas     : Further ROCIS development; embedding schemes
   Dimitrios Pantazis     : SARC Basis sets
   Anastasios Papadopoulos: AUTO-CI, single reference methods and gradients
   Taras Petrenko         : DFT Hessian,TD-DFT gradient, ASA, ECA, R-Raman, ABS, FL, XAS/XES, NRVS
   Peter Pinski           : DLPNO-MP2, DLPNO-MP2 Gradient
   Christoph Reimann      : Effective Core Potentials
   Marius Retegan         : Local ZFS, SOC
   Christoph Riplinger    : Optimizer, TS searches, QM/MM, DLPNO-CCSD(T), (RO)-DLPNO pert. Triples
   Tobias Risthaus        : Range-separated hybrids, TD-DFT gradient, RPA, STAB
   Michael Roemelt        : Original ROCIS implementation
   Masaaki Saitow         : Open-shell DLPNO-CCSD energy and density
   Barbara Sandhoefer     : DKH picture change effects
   Avijit Sen             : IP-ROCIS
   Kantharuban Sivalingam : CASSCF convergence, NEVPT2, FIC-MRCI
   Bernardo de Souza      : ESD, SOC TD-DFT
   Georgi Stoychev        : AutoAux, RI-MP2 NMR, DLPNO-MP2 response
   Willem Van den Heuvel  : Paramagnetic NMR
   Boris Wezisla          : Elementary symmetry handling
   Frank Wennmohs         : Technical directorship


 We gratefully acknowledge several colleagues who have allowed us to
 interface, adapt or use parts of their codes:
   Stefan Grimme, W. Hujo, H. Kruse, P. Pracht,  : VdW corrections, initial TS optimization,
                  C. Bannwarth, S. Ehlert          DFT functionals, gCP, sTDA/sTD-DF
   Ed Valeev, F. Pavosevic, A. Kumar             : LibInt (2-el integral package), F12 methods
   Garnet Chan, S. Sharma, J. Yang, R. Olivares  : DMRG
   Ulf Ekstrom                                   : XCFun DFT Library
   Mihaly Kallay                                 : mrcc  (arbitrary order and MRCC methods)
   Jiri Pittner, Ondrej Demel                    : Mk-CCSD
   Frank Weinhold                                : gennbo (NPA and NBO analysis)
   Christopher J. Cramer and Donald G. Truhlar   : smd solvation model
   Lars Goerigk                                  : TD-DFT with DH, B97 family of functionals
   V. Asgeirsson, H. Jonsson                     : NEB implementation
   FAccTs GmbH                                   : IRC, NEB, NEB-TS, DLPNO-Multilevel, CI-OPT
                                                   MM, QMMM, 2- and 3-layer-ONIOM, Crystal-QMMM,
                                                   LR-CPCM, SF, NACMEs, symmetry and pop. for TD-DFT,
                                                   nearIR, NL-DFT gradient (VV10), updates on ESD,
                                                   ML-optimized integration grids
   S Lehtola, MJT Oliveira, MAL Marques          : LibXC Library
   Liviu Ungur et al                             : ANISO software


 Your calculation uses the libint2 library for the computation of 2-el integrals
 For citations please refer to: http://libint.valeyev.net

 Your ORCA version has been built with support for libXC version: 5.1.0
 For citations please refer to: https://tddft.org/programs/libxc/

 This ORCA versions uses:
   CBLAS   interface :  Fast vector & matrix operations
   LAPACKE interface :  Fast linear algebra routines
   SCALAPACK package :  Parallel linear algebra routines
   Shared memory     :  Shared parallel matrices
   BLAS/LAPACK       :  OpenBLAS 0.3.15  USE64BITINT DYNAMIC_ARCH NO_AFFINITY SkylakeX SINGLE_THREADED
        Core in use  :  SkylakeX
   Copyright (c) 2011-2014, The OpenBLAS Project


================================================================================

----- Orbital basis set information -----
Your calculation utilizes the basis: def2-SVP
   F. Weigend and R. Ahlrichs, Phys. Chem. Chem. Phys. 7, 3297 (2005).

The basis set includes element-specific modifications.

Your calculation utilizes the basis: aug-cc-pVTZ 
    H, B-Ne : Obtained from the ccRepo (grant-hill.group.shef.ac.uk/ccrepo) Feb. 2017
              R. A. Kendall, T. H. Dunning, Jr., R. J. Harrison, J. Chem. Phys. 96, 6796 (1992)
         He : Obtained from the ccRepo (grant-hill.group.shef.ac.uk/ccrepo) Feb. 2017
              D. E. Woon, T. H. Dunning, Jr., J. Chem. Phys. 100, 2975 (1994)
  Li-Be, Na : Obtained from the ccRepo (grant-hill.group.shef.ac.uk/ccrepo) Feb. 2017
              B. P. Prascher, D. E. Woon, K. A. Peterson, T. H. Dunning, Jr., A. K. Wilson, Theor. Chem. Acc. 128, 69 (2011)
         Mg : Obtained from the Peterson Research Group Website (tyr0.chem.wsu.edu/~kipeters) Feb. 2017
              B. P. Prascher, D. E. Woon, K. A. Peterson, T. H. Dunning, Jr., A. K. Wilson, Theor. Chem. Acc. 128, 69 (2011)
      Al-Ar : Obtained from the ccRepo (grant-hill.group.shef.ac.uk/ccrepo) Feb. 2017
              D. E. Woon, T. H. Dunning, Jr., J. Chem. Phys. 98, 1358 (1993)
      Sc-Zn : Obtained from the ccRepo (grant-hill.group.shef.ac.uk/ccrepo) Feb. 2017
              N. B. Balabanov, K. A. Peterson, J. Chem. Phys. 123, 064107 (2005)
              N. B. Balabanov, K. A. Peterson, J. Chem. Phys. 125, 074110 (2006)
      Ga-Kr : Obtained from the ccRepo (grant-hill.group.shef.ac.uk/ccrepo) Feb. 2017
              A. K. Wilson, D. E. Woon, K. A. Peterson, T. H. Dunning, Jr., J. Chem. Phys. 110, 7667 (1999)
     Ag, Au : Obtained from the Peterson Research Group Website (tyr0.chem.wsu.edu/~kipeters) Feb. 2017
              K. A. Peterson, C. Puzzarini, Theor. Chem. Acc. 114, 283 (2005)

Your calculation utilizes the basis: cc-pVTZ 
       H, B-Ne : Obtained from the ccRepo (grant-hill.group.shef.ac.uk/ccrepo) Feb. 2017
                 T. H. Dunning, Jr., J. Chem. Phys. 90, 1007 (1989)
            He : Obtained from the ccRepo (grant-hill.group.shef.ac.uk/ccrepo) Feb. 2017
                 D. E. Woon, T. H. Dunning, Jr., J. Chem. Phys. 100, 2975 (1994)
  Li-Be, Na-Mg : Obtained from the ccRepo (grant-hill.group.shef.ac.uk/ccrepo) Feb. 2017
                 B. P. Prascher, D. E. Woon, K. A. Peterson, T. H. Dunning, Jr., A. K. Wilson, Theor. Chem. Acc. 128, 69 (2011)
         Al-Ar : Obtained from the ccRepo (grant-hill.group.shef.ac.uk/ccrepo) Feb. 2017
                 D. E. Woon, T. H. Dunning, Jr., J. Chem. Phys. 98, 1358 (1993)
            Ca : Obtained from the Peterson Research Group Website (tyr0.chem.wsu.edu/~kipeters) Feb. 2017
                 J. Koput, K. A. Peterson, J. Phys. Chem. 106, 9595 (2002)
         Sc-Zn : Obtained from the ccRepo (grant-hill.group.shef.ac.uk/ccrepo) Feb. 2017
                 N. B. Balabanov, K. A. Peterson, J. Chem. Phys. 123, 064107 (2005)
                 N. B. Balabanov, K. A. Peterson, J. Chem. Phys. 125, 074110 (2006)
         Ga-Kr : Obtained from the ccRepo (grant-hill.group.shef.ac.uk/ccrepo) Feb. 2017
                 A. K. Wilson, D. E. Woon, K. A. Peterson, T. H. Dunning, Jr., J. Chem. Phys. 110, 7667 (1999)
             Y : Obtained from the ccRepo (grant-hill.group.shef.ac.uk/ccrepo) Feb. 2017
                 K. A. Peterson, D. Figgen, M. Dolg, H. Stoll, J. Chem. Phys. 126, 124101 (2007)
        Ag, Au : Obtained from the Peterson Research Group Website (tyr0.chem.wsu.edu/~kipeters) Feb. 2017
                 K. A. Peterson, C. Puzzarini, Theor. Chem. Acc. 114, 283 (2005)

----- AuxJ basis set information -----
Your calculation utilizes the auxiliary basis: def2/J
   F. Weigend, Phys. Chem. Chem. Phys. 8, 1057 (2006).

================================================================================
                                        WARNINGS
                       Please study these warnings very carefully!
================================================================================

WARNING: The globally-selected AuxJ basis set is optimized for use with ECPs
         Make sure a suitable alternative is explicitly given all heavy elements (Z>36)

INFO   : the flag for use of the SHARK integral package has been found!

================================================================================
                                       INPUT FILE
================================================================================
NAME = final082.orca.inp
|  1> ! NoMOPrint PrintBasis #MINIPRINT SMALLPRINT LARGEPRINT
|  2> ! ALLPOP XYZFILE
|  3> #! BP86 3-21G   TightSCF
|  4> ! ENGRAD
|  5> ! B3LYP NormalPNO PModel #DecontractAux
|  6> #! VerySlowConv 
|  7>  %maxcore 5000
|  8>  %scf  maxiter   500  end 
|  9> 
| 10> %pal
| 11>     nprocs 32
| 12> end
| 13> 
| 14> %basis
| 15>     NewGTO O    # New basis for oxygen
| 16>         "aug-cc-pVTZ"
| 17>     end
| 18>     NewGTO C    # New basis for carbon
| 19>         "aug-cc-pVTZ"
| 20>     end
| 21>     NewGTO H    # New basis for hydrogen
| 22>         "cc-pVTZ"
| 23>     end
| 24> end
| 25> 
| 26> * xyz 0   1
| 27>   C  10.54  9.15  10.57  #1
| 28>   H  9.7  8.97  9.86  #2
| 29>   H  10.05  9.18  11.6  #3
| 30>   C  11.28  10.46  10.43  #4
| 31>   H  12.04  10.45  11.18  #5
| 32>   H  11.62  10.34  9.44  #6
| 33>   C  10.3  11.68  10.68  #7
| 34>   H  9.71  11.6  11.54  #8
| 35>   H  9.55  11.73  9.88  #9
| 36>   C  11.04  12.98  10.85  #10
| 37>   H  10.61  13.76  10.17  #11
| 38>   H  12.17  12.87  10.6  #12
| 39>   O  10.92  13.43  12.24  #13
| 40>   H  11.01  14.42  12.29  #14
| 41>   O  11.5  8.07  10.54  #15
| 42>   H  11.14  7.3  10.01  #16
| 43>   O  13.35  7.37  12.49  #17
| 44>   H  12.9  7.85  11.85  #18
| 45>   H  14.21  7.73  12.73  #19
| 46>   O  13.28  16.61  10.97  #20
| 47>   H  13.89  15.95  11.3  #21
| 48>   H  12.43  16.4  11.44  #22
| 49>   O  7.98  12.2  13.15  #23
| 50>   H  7.78  12.71  13.95  #24
| 51>   H  8.11  12.95  12.55  #25
| 52>   O  11.06  6.19  8.45  #26
| 53>   H  11.79  6.06  9.11  #27
| 54>   H  10.3  5.83  8.88  #28
| 55>   O  9.12  7.29  13.84  #29
| 56>   H  8.6  7.87  13.19  #30
| 57>   H  9.81  6.98  13.23  #31
| 58>   O  13.98  18.93  12.44  #32
| 59>   H  13.88  17.99  12.1  #33
| 60>   H  13.25  19.25  12.96  #34
| 61>   O  8.2  5.19  6.54  #35
| 62>   H  9.05  4.96  6.1  #36
| 63>   H  8.32  5.02  7.46  #37
| 64>   O  13.61  3.58  8.29  #38
| 65>   H  13.42  3.83  7.38  #39
| 66>   H  13.05  4.2  8.78  #40
| 67>   O  7.8  11.82  7.35  #41
| 68>   H  8.77  11.77  7.12  #42
| 69>   H  7.47  10.9  7.25  #43
| 70>   O  7.54  13.85  11.17  #44
| 71>   H  7.04  13.83  10.3  #45
| 72>   H  6.9  14.11  11.8  #46
| 73>   O  7.5  13.88  15.36  #47
| 74>   H  7.19  13.46  16.2  #48
| 75>   H  7.91  14.71  15.71  #49
| 76>   O  12.61  4.83  10.57  #50
| 77>   H  12.06  4  10.73  #51
| 78>   H  13.38  4.81  11.14  #52
| 79>   O  8.85  16.39  11.25  #53
| 80>   H  8.52  15.54  10.91  #54
| 81>   H  8.87  16.99  10.48  #55
| 82>   O  11.13  16.05  12.73  #56
| 83>   H  10.17  16.27  12.54  #57
| 84>   H  11.28  16.09  13.67  #58
| 85>   O  13.04  15.77  8.31  #59
| 86>   H  13.28  15.71  9.28  #60
| 87>   H  13.7  15.17  8.01  #61
| 88>   O  11.88  5.03  6.08  #62
| 89>   H  11.85  5.38  6.97  #63
| 90>   H  11.26  5.47  5.48  #64
| 91>   O  7.84  9.42  12.6  #65
| 92>   H  7.17  9.26  11.95  #66
| 93>   H  7.93  10.38  12.79  #67
| 94>   O  11.67  8.75  14.97  #68
| 95>   H  12.44  8.39  14.5  #69
| 96>   H  10.86  8.42  14.57  #70
| 97>   O  15.3  10.93  11.57  #71
| 98>   H  14.56  11.2  12.12  #72
| 99>   H  15.33  9.98  11.23  #73
|100>   O  10.37  5.16  15.74  #74
|101>   H  11.07  4.67  16.18  #75
|102>   H  10.82  5.52  14.95  #76
|103>   O  10.59  11.28  6.38  #77
|104>   H  10.36  11.25  5.44  #78
|105>   H  10.71  10.29  6.64  #79
|106>   O  5.65  14.91  13.21  #80
|107>   H  6.38  14.71  13.86  #81
|108>   H  5.31  15.72  13.58  #82
|109>   O  8.8  9.96  15.65  #83
|110>   H  9.03  10.68  15.05  #84
|111>   H  8.4  9.36  15.04  #85
|112>   O  10.99  11.54  14.36  #86
|113>   H  10.86  11.97  13.49  #87
|114>   H  11.24  10.63  14.21  #88
|115>   O  11.31  8.7  7.13  #89
|116>   H  11.05  7.79  7.46  #90
|117>   H  12.26  8.7  7.27  #91
|118>   O  14.57  14.5  12.41  #92
|119>   H  15.42  14.06  12.16  #93
|120>   H  14.07  13.76  12.8  #94
|121>   O  5.36  11.55  12.81  #95
|122>   H  5.12  11.42  11.93  #96
|123>   H  6.33  11.62  12.76  #97
|124>   O  15.09  7.72  14.67  #98
|125>   H  15.56  8.28  15.31  #99
|126>   H  15.82  7.2  14.28  #100
|127>   O  11.46  5.56  13.14  #101
|128>   H  11.1  4.8  12.67  #102
|129>   H  11.94  6.17  12.52  #103
|130>   O  15.43  8.39  10.66  #104
|131>   H  16.15  8.16  10.08  #105
|132>   H  15.05  7.59  10.93  #106
|133>   O  6.42  6.5  13.88  #107
|134>   H  6.02  7.35  14  #108
|135>   H  7.35  6.5  14.05  #109
|136>   O  10.26  16.1  8.37  #110
|137>   H  10.51  17.03  8.7  #111
|138>   H  11.05  15.57  8.28  #112
|139>   O  8.54  6.01  9.51  #113
|140>   H  8.53  5.54  10.37  #114
|141>   H  7.6  6.26  9.3  #115
|142>   O  13.8  12.13  13.61  #116
|143>   H  12.87  12.11  13.82  #117
|144>   H  14.22  12  14.48  #118
|145>   Q  0.6645  18.41$  12.08$  17.8$
|146>   Q  0.6645  17.54$  11.33$  18.66$
|147>   Q  -1.3290  18$  11.41$  18$
|148>   Q  0.6645  12.29$  15.9$  4.13$
|149>   Q  0.6645  11.48$  17.23$  4.41$
|150>   Q  -1.3290  11.79$  16.6$  3.91$
|151>   Q  0.6645  17.71$  12.48$  4.91$
|152>   Q  0.6645  18.54$  13.64$  5.48$
|153>   Q  -1.3290  18.2$  12.89$  5.47$
|154>   Q  0.6645  15.18$  13.25$  7.7$
|155>   Q  0.6645  15.46$  13.95$  6.36$
|156>   Q  -1.3290  15.25$  13.91$  7.17$
|157>   Q  0.6645  9.89$  20.56$  5.25$
|158>   Q  0.6645  9.09$  20.5$  6.57$
|159>   Q  -1.3290  9.6$  20.2$  5.97$
|160>   Q  0.6645  8.39$  18.3$  5.68$
|161>   Q  0.6645  7.26$  17.54$  6.52$
|162>   Q  -1.3290  7.68$  17.83$  5.82$
|163>   Q  0.6645  18.41$  13.89$  12.07$
|164>   Q  0.6645  20.05$  14.15$  12.05$
|165>   Q  -1.3290  19.21$  14.18$  12.35$
|166>   Q  0.6645  20.23$  10.81$  12.85$
|167>   Q  0.6645  19.39$  9.79$  12.02$
|168>   Q  -1.3290  19.65$  10.56$  12.28$
|169>   Q  0.6645  6.87$  17.44$  15.32$
|170>   Q  0.6645  5.94$  18.22$  14.35$
|171>   Q  -1.3290  6.17$  17.62$  14.9$
|172>   Q  0.6645  10.39$  19.22$  16.92$
|173>   Q  0.6645  11.85$  19.37$  16.55$
|174>   Q  -1.3290  11.02$  19.57$  16.54$
|175>   Q  0.6645  5.66$  5.46$  12.65$
|176>   Q  0.6645  4.32$  4.71$  12.31$
|177>   Q  -1.3290  5.16$  4.87$  12.27$
|178>   Q  0.6645  19.01$  18.51$  10.3$
|179>   Q  0.6645  19.56$  18.08$  11.66$
|180>   Q  -1.3290  19.62$  18.4$  10.9$
|181>   Q  0.6645  4.05$  3.65$  9.44$
|182>   Q  0.6645  5.26$  3.17$  8.82$
|183>   Q  -1.3290  4.67$  3.13$  9.39$
|184>   Q  0.6645  9.89$  11.89$  2.87$
|185>   Q  0.6645  8.61$  11.7$  3.81$
|186>   Q  -1.3290  9.45$  11.67$  3.57$
|187>   Q  0.6645  9.13$  4.19$  14.94$
|188>   Q  0.6645  8.24$  3.2$  14.96$
|189>   Q  -1.3290  8.69$  3.68$  14.57$
|190>   Q  0.6645  13.92$  11.04$  5.68$
|191>   Q  0.6645  14.42$  9.75$  6.43$
|192>   Q  -1.3290  14.38$  10.29$  5.78$
|193>   Q  0.6645  5.11$  19.77$  4.21$
|194>   Q  0.6645  5.99$  19.05$  5.26$
|195>   Q  -1.3290  5.36$  19.49$  4.99$
|196>   Q  0.6645  7.16$  9.2$  17.06$
|197>   Q  0.6645  5.78$  9.04$  17.93$
|198>   Q  -1.3290  6.32$  9.36$  17.32$
|199>   Q  0.6645  17.19$  14.01$  16.83$
|200>   Q  0.6645  15.91$  14.78$  16.31$
|201>   Q  -1.3290  16.38$  14.34$  16.86$
|202>   Q  0.6645  8.33$  4.48$  12.73$
|203>   Q  0.6645  7.13$  4.43$  11.7$
|204>   Q  -1.3290  7.96$  4.51$  11.93$
|205>   Q  0.6645  12.42$  20.54$  9.48$
|206>   Q  0.6645  10.93$  19.95$  9.49$
|207>   Q  -1.3290  11.55$  20.56$  9.49$
|208>   Q  0.6645  0.9$  7.42$  9.98$
|209>   Q  0.6645  2.13$  6.53$  10.26$
|210>   Q  -1.3290  1.61$  7.16$  10.42$
|211>   Q  0.6645  13.9$  19.43$  17.13$
|212>   Q  0.6645  13.26$  20.25$  18.2$
|213>   Q  -1.3290  13.65$  20.12$  17.47$
|214>   Q  0.6645  14.61$  2.15$  5.67$
|215>   Q  0.6645  13.76$  3.12$  4.85$
|216>   Q  -1.3290  13.86$  2.46$  5.36$
|217>   Q  0.6645  5.06$  13.73$  5.66$
|218>   Q  0.6645  5.24$  15.35$  5.7$
|219>   Q  -1.3290  5.29$  14.51$  5.96$
|220>   Q  0.6645  7.99$  9.51$  19.93$
|221>   Q  0.6645  7.33$  8.17$  20.35$
|222>   Q  -1.3290  7.61$  8.98$  20.48$
|223>   Q  0.6645  14.17$  15.26$  18.94$
|224>   Q  0.6645  13.58$  16.67$  18.34$
|225>   Q  -1.3290  13.82$  16.07$  18.94$
|226>   Q  0.6645  14.43$  8.6$  8.7$
|227>   Q  0.6645  14.9$  7.91$  7.41$
|228>   Q  -1.3290  14.36$  8.4$  7.9$
|229>   Q  0.6645  16.31$  6.17$  7.21$
|230>   Q  0.6645  15.61$  5.69$  5.92$
|231>   Q  -1.3290  15.89$  6.27$  6.48$
|232>   Q  0.6645  7.38$  6.62$  6.01$
|233>   Q  0.6645  7.12$  7.92$  5.07$
|234>   Q  -1.3290  6.92$  7.31$  5.65$
|235>   Q  0.6645  15.66$  -0.59$  14.4$
|236>   Q  0.6645  15.52$  0.17$  15.71$
|237>   Q  -1.3290  15.39$  0.04$  14.9$
|238>   Q  0.6645  1.5$  14.28$  7.33$
|239>   Q  0.6645  2.08$  15.22$  6.21$
|240>   Q  -1.3290  1.78$  14.48$  6.55$
|241>   Q  0.6645  3.51$  9.64$  14.75$
|242>   Q  0.6645  2.68$  10.38$  15.78$
|243>   Q  -1.3290  2.91$  10.13$  15.03$
|244>   Q  0.6645  6.32$  17.2$  8.68$
|245>   Q  0.6645  7.48$  16.43$  8.74$
|246>   Q  -1.3290  7.1$  17.1$  8.55$
|247>   Q  0.6645  9.15$  14.24$  2.44$
|248>   Q  0.6645  10.4$  15.18$  2.91$
|249>   Q  -1.3290  9.91$  14.66$  2.39$
|250>   Q  0.6645  7.52$  0.54$  6.33$
|251>   Q  0.6645  6.92$  -0.14$  7.58$
|252>   Q  -1.3290  7.51$  0.19$  7.09$
|253>   Q  0.6645  15.07$  4.54$  12.32$
|254>   Q  0.6645  15.74$  4.46$  10.96$
|255>   Q  -1.3290  15.33$  4.85$  11.57$
|256>   Q  0.6645  19.14$  2.67$  5.88$
|257>   Q  0.6645  18.35$  3.91$  6.4$
|258>   Q  -1.3290  18.49$  3.2$  5.97$
|259>   Q  0.6645  9.6$  5.85$  3.59$
|260>   Q  0.6645  10.39$  6.96$  4.17$
|261>   Q  -1.3290  10.12$  6.17$  4.13$
|262>   Q  0.6645  17.61$  17.52$  15.89$
|263>   Q  0.6645  16.83$  18.39$  14.82$
|264>   Q  -1.3290  16.95$  17.99$  15.58$
|265>   Q  0.6645  4.93$  16.52$  15.94$
|266>   Q  0.6645  4.49$  15.12$  16.46$
|267>   Q  -1.3290  4.58$  16.01$  16.5$
|268>   Q  0.6645  13.18$  9.07$  17.93$
|269>   Q  0.6645  12.39$  8.64$  16.73$
|270>   Q  -1.3290  12.7$  8.55$  17.49$
|271>   Q  0.6645  1.49$  15.34$  9.06$
|272>   Q  0.6645  2.24$  14.11$  9.45$
|273>   Q  -1.3290  1.53$  14.55$  9.25$
|274>   Q  0.6645  13.75$  6.4$  1.57$
|275>   Q  0.6645  14.03$  6.03$  0.11$
|276>   Q  -1.3290  13.55$  6.3$  0.75$
|277>   Q  0.6645  10.04$  8.45$  1.01$
|278>   Q  0.6645  8.66$  8.97$  0.42$
|279>   Q  -1.3290  9.22$  8.72$  1.02$
|280>   Q  0.6645  16.73$  18.45$  9.64$
|281>   Q  0.6645  17.29$  19.54$  8.69$
|282>   Q  -1.3290  17.31$  18.85$  9.19$
|283>   Q  0.6645  20.03$  17.08$  13.77$
|284>   Q  0.6645  19.36$  16.13$  12.89$
|285>   Q  -1.3290  19.51$  16.87$  13.15$
|286>   Q  0.6645  5.26$  5.57$  10.24$
|287>   Q  0.6645  4.92$  6.01$  8.82$
|288>   Q  -1.3290  5.35$  6.05$  9.54$
|289>   Q  0.6645  17.71$  7.27$  12.37$
|290>   Q  0.6645  16.56$  6.19$  12.57$
|291>   Q  -1.3290  17.12$  6.77$  12.81$
|292>   Q  0.6645  17.52$  17.63$  12.5$
|293>   Q  0.6645  17.67$  16.85$  11.23$
|294>   Q  -1.3290  17.25$  17.28$  11.79$
|295>   Q  0.6645  7.4$  16.9$  1.43$
|296>   Q  0.6645  8.78$  16.51$  1.95$
|297>   Q  -1.3290  8.14$  17.01$  1.87$
|298>   Q  0.6645  10.51$  10.61$  0.86$
|299>   Q  0.6645  10.26$  12.15$  0.51$
|300>   Q  -1.3290  10.62$  11.47$  0.9$
|301>   Q  0.6645  3.85$  13.54$  10.75$
|302>   Q  0.6645  4.27$  14.78$  11.6$
|303>   Q  -1.3290  3.79$  14.33$  11.08$
|304>   Q  0.6645  7.95$  18.91$  14.04$
|305>   Q  0.6645  8.39$  17.85$  13.01$
|306>   Q  -1.3290  8.45$  18.31$  13.72$
|307>   Q  0.6645  6.93$  1.91$  16.87$
|308>   Q  0.6645  6.53$  2.37$  15.4$
|309>   Q  -1.3290  7$  2.35$  16.12$
|310>   Q  0.6645  5.79$  5.88$  15.4$
|311>   Q  0.6645  6.32$  6.4$  16.75$
|312>   Q  -1.3290  5.8$  5.92$  16.25$
|313>   Q  0.6645  13.61$  17.69$  7.84$
|314>   Q  0.6645  13.3$  18.94$  7.12$
|315>   Q  -1.3290  13.78$  18.48$  7.6$
|316>   Q  0.6645  8.97$  17.03$  15.05$
|317>   Q  0.6645  9.05$  16.57$  16.58$
|318>   Q  -1.3290  9$  16.47$  15.71$
|319>   Q  0.6645  9.81$  17.93$  18.73$
|320>   Q  0.6645  8.53$  18.2$  17.99$
|321>   Q  -1.3290  9.29$  17.91$  18.07$
|322>   Q  0.6645  2.65$  7.75$  7.57$
|323>   Q  0.6645  2.67$  9.04$  6.75$
|324>   Q  -1.3290  2.99$  8.33$  7.08$
|325>   Q  0.6645  4.42$  13.17$  18.09$
|326>   Q  0.6645  3.16$  14.04$  18.45$
|327>   Q  -1.3290  3.69$  13.35$  18.51$
|328>   Q  0.6645  3.04$  10.74$  10.44$
|329>   Q  0.6645  3.7$  11.49$  9.27$
|330>   Q  -1.3290  3.69$  11.15$  10.04$
|331>   Q  0.6645  12.95$  4.63$  13.59$
|332>   Q  0.6645  13.5$  3.28$  13.84$
|333>   Q  -1.3290  13.53$  4.11$  13.74$
|334>   Q  0.6645  14.22$  4.45$  15.59$
|335>   Q  0.6645  14.35$  3.27$  16.66$
|336>   Q  -1.3290  14.5$  4.04$  16.31$
|337>   Q  0.6645  8.37$  7.45$  18.02$
|338>   Q  0.6645  7.87$  5.92$  17.98$
|339>   Q  -1.3290  7.81$  6.77$  18.04$
|340>   Q  0.6645  6.75$  2.49$  4.91$
|341>   Q  0.6645  8.32$  2.38$  4.98$
|342>   Q  -1.3290  7.5$  2.14$  5.1$
|343>   Q  0.6645  14.44$  7.77$  4.01$
|344>   Q  0.6645  15.26$  7.66$  2.61$
|345>   Q  -1.3290  14.73$  7.43$  3.26$
|346>   Q  0.6645  6.9$  3.31$  6.89$
|347>   Q  0.6645  5.63$  4.24$  7.01$
|348>   Q  -1.3290  6.1$  3.54$  7.08$
|349>   Q  0.6645  5.66$  3.23$  13.32$
|350>   Q  0.6645  6.33$  1.93$  13.11$
|351>   Q  -1.3290  5.91$  2.47$  13.55$
|352>   Q  0.6645  14.94$  15.5$  13.95$
|353>   Q  0.6645  15.76$  16.49$  14.8$
|354>   Q  -1.3290  15.25$  15.85$  14.69$
|355>   Q  0.6645  6.11$  19.12$  17.11$
|356>   Q  0.6645  6.41$  19.72$  18.58$
|357>   Q  -1.3290  6.41$  19.12$  17.94$
|358>   Q  0.6645  10.79$  2.26$  11.22$
|359>   Q  0.6645  9.57$  3.17$  11.22$
|360>   Q  -1.3290  10.37$  2.95$  11.39$
|361>   Q  0.6645  4.45$  7.12$  4.25$
|362>   Q  0.6645  3.76$  8.02$  5.25$
|363>   Q  -1.3290  3.93$  7.73$  4.51$
|364>   Q  0.6645  1.8$  8.87$  10.87$
|365>   Q  0.6645  1.29$  10.09$  11.81$
|366>   Q  -1.3290  1.66$  9.7$  11.09$
|367>   Q  0.6645  3.62$  5.29$  6.72$
|368>   Q  0.6645  4.35$  6.52$  6.67$
|369>   Q  -1.3290  4.18$  5.8$  6.97$
|370>   Q  0.6645  9.21$  0.35$  12.89$
|371>   Q  0.6645  8.67$  1.73$  13.19$
|372>   Q  -1.3290  8.7$  0.88$  13.26$
|373>   Q  0.6645  17.8$  7.57$  8.24$
|374>   Q  0.6645  17.44$  6.52$  9.14$
|375>   Q  -1.3290  17.43$  7.29$  8.9$
|376>   Q  0.6645  18.55$  7.39$  3.91$
|377>   Q  0.6645  17.16$  6.84$  4.55$
|378>   Q  -1.3290  17.77$  7.02$  3.94$
|379>   Q  0.6645  4.16$  18.17$  12.48$
|380>   Q  0.6645  3.13$  17.04$  12.19$
|381>   Q  -1.3290  3.86$  17.49$  12.09$
|382>   Q  0.6645  15.25$  11.44$  9.58$
|383>   Q  0.6645  16.18$  11.51$  8.51$
|384>   Q  -1.3290  15.54$  11.76$  8.93$
|385>   Q  0.6645  11.98$  14.76$  15.53$
|386>   Q  0.6645  10.88$  15.93$  15.43$
|387>   Q  -1.3290  11.64$  15.55$  15.37$
|388>   Q  0.6645  10.82$  -0.27$  11.09$
|389>   Q  0.6645  11.25$  -0.6$  12.47$
|390>   Q  -1.3290  10.9$  -0.09$  11.9$
|391>   Q  0.6645  16.76$  16.83$  19.23$
|392>   Q  0.6645  16.61$  15.41$  18.48$
|393>   Q  -1.3290  16.86$  15.97$  19.09$
|394>   Q  0.6645  4.39$  20.2$  13.29$
|395>   Q  0.6645  5.45$  19.84$  12.35$
|396>   Q  -1.3290  4.99$  19.72$  13.04$
|397>   Q  0.6645  3.75$  11.05$  5.97$
|398>   Q  0.6645  4.82$  10.11$  6.25$
|399>   Q  -1.3290  4.5$  10.75$  5.85$
|400>   Q  0.6645  18.02$  11.32$  13.13$
|401>   Q  0.6645  16.54$  11.19$  13.21$
|402>   Q  -1.3290  17.27$  11.16$  13.5$
|403>   Q  0.6645  6.06$  17.35$  19.01$
|404>   Q  0.6645  5.32$  16.17$  18.53$
|405>   Q  -1.3290  5.62$  16.65$  19.1$
|406>   Q  0.6645  6.9$  13.27$  18.1$
|407>   Q  0.6645  6.73$  11.89$  17.54$
|408>   Q  -1.3290  6.46$  12.63$  17.78$
|409>   Q  0.6645  10.05$  18.85$  20.66$
|410>   Q  0.6645  11.12$  17.79$  20.95$
|411>   Q  -1.3290  10.42$  18.07$  20.59$
|412>   Q  0.6645  12.26$  12.34$  0.93$
|413>   Q  0.6645  12.95$  13.3$  1.87$
|414>   Q  -1.3290  12.93$  12.81$  1.2$
|415>   Q  0.6645  15.79$  -0.13$  10.54$
|416>   Q  0.6645  16.52$  0.74$  11.59$
|417>   Q  -1.3290  16.42$  0.33$  10.85$
|418>   Q  0.6645  9.6$  2.13$  9.03$
|419>   Q  0.6645  8.37$  1.59$  8.35$
|420>   Q  -1.3290  8.77$  2.03$  8.93$
|421>   Q  0.6645  5.97$  5.4$  3.17$
|422>   Q  0.6645  6.05$  5.71$  4.7$
|423>   Q  -1.3290  5.7$  5.43$  3.96$
|424>   Q  0.6645  7.1$  3.75$  17.56$
|425>   Q  0.6645  8.4$  4$  18.6$
|426>   Q  -1.3290  7.57$  4.01$  18.29$
|427>   Q  0.6645  12.05$  2.22$  8.45$
|428>   Q  0.6645  11.45$  0.93$  8.87$
|429>   Q  -1.3290  11.47$  1.76$  8.88$
|430>   Q  0.6645  6.08$  6.67$  0.41$
|431>   Q  0.6645  6.22$  7.38$  1.74$
|432>   Q  -1.3290  6.11$  6.75$  1.24$
|433>   Q  0.6645  14.3$  17.47$  16.44$
|434>   Q  0.6645  13.03$  16.95$  16.27$
|435>   Q  -1.3290  13.53$  17.47$  16.6$
|436>   Q  0.6645  16.04$  12.12$  3.6$
|437>   Q  0.6645  16$  10.91$  4.47$
|438>   Q  -1.3290  16.32$  11.39$  3.85$
|439>   Q  0.6645  10.95$  17.25$  6.55$
|440>   Q  0.6645  10.64$  18.75$  6.08$
|441>   Q  -1.3290  11.1$  18.01$  6.17$
|442>   Q  0.6645  16.52$  12.63$  10.88$
|443>   Q  0.6645  17.01$  14$  10.28$
|444>   Q  -1.3290  16.91$  13.37$  10.92$
|445>   Q  0.6645  10.84$  12.93$  16.06$
|446>   Q  0.6645  11.97$  12.45$  17.02$
|447>   Q  -1.3290  11.44$  13.02$  16.66$
|448>   Q  0.6645  8.47$  4.29$  1.74$
|449>   Q  0.6645  7.79$  5.56$  1.46$
|450>   Q  -1.3290  8.46$  5.11$  1.68$
|451>   Q  0.6645  1.14$  10.7$  7.2$
|452>   Q  0.6645  1.18$  10.37$  5.66$
|453>   Q  -1.3290  1.46$  10.41$  6.45$
|454>   Q  0.6645  14.54$  18.56$  4.2$
|455>   Q  0.6645  13.36$  17.52$  3.89$
|456>   Q  -1.3290  14.15$  17.9$  3.81$
|457>   Q  0.6645  5.11$  9.29$  10.2$
|458>   Q  0.6645  5.77$  7.88$  10$
|459>   Q  -1.3290  5.7$  8.67$  10.31$
|460>   Q  0.6645  14.73$  9.69$  1.95$
|461>   Q  0.6645  14.93$  9.37$  0.6$
|462>   Q  -1.3290  15.12$  9.28$  1.37$
|463>   Q  0.6645  14.51$  14.23$  3.62$
|464>   Q  0.6645  13.16$  13.65$  4.18$
|465>   Q  -1.3290  13.64$  14.14$  3.66$
|466>   Q  0.6645  8.49$  15.33$  18.68$
|467>   Q  0.6645  7.06$  15.35$  19.25$
|468>   Q  -1.3290  7.65$  15.14$  18.67$
|469>   Q  0.6645  17.22$  10.04$  16.55$
|470>   Q  0.6645  17.03$  10.03$  14.92$
|471>   Q  -1.3290  16.87$  9.79$  15.76$
|472>   Q  0.6645  16.65$  19.62$  18.93$
|473>   Q  0.6645  16.26$  18.56$  17.94$
|474>   Q  -1.3290  16.53$  18.83$  18.68$
|475>   Q  0.6645  17.95$  7.35$  18.5$
|476>   Q  0.6645  17.09$  6.67$  17.38$
|477>   Q  -1.3290  17.81$  6.88$  17.8$
|478>   Q  0.6645  10.13$  14.23$  20.65$
|479>   Q  0.6645  9.83$  14.2$  22.16$
|480>   Q  -1.3290  9.8$  13.88$  21.37$
|481>   Q  0.6645  15.22$  3.07$  8.98$
|482>   Q  0.6645  15.86$  2.24$  10.13$
|483>   Q  -1.3290  15.81$  2.88$  9.59$
|484>   Q  0.6645  18.49$  4.77$  8.59$
|485>   Q  0.6645  17.08$  4.09$  8.8$
|486>   Q  -1.3290  17.65$  4.67$  8.49$
|487>   Q  0.6645  10.33$  6.59$  19.03$
|488>   Q  0.6645  11.29$  7.65$  18.45$
|489>   Q  -1.3290  10.69$  7.35$  18.99$
|490>   Q  0.6645  19.34$  7.78$  6.43$
|491>   Q  0.6645  17.97$  8.27$  5.91$
|492>   Q  -1.3290  18.54$  8.08$  6.5$
|493>   Q  0.6645  13.46$  1.08$  14.11$
|494>   Q  0.6645  12.37$  1.35$  13.16$
|495>   Q  -1.3290  12.82$  1.5$  13.81$
|496>   Q  0.6645  16.62$  1.12$  5.06$
|497>   Q  0.6645  16.72$  2.04$  6.23$
|498>   Q  -1.3290  16.4$  1.4$  5.8$
|499>   Q  0.6645  15.58$  12.47$  16.54$
|500>   Q  0.6645  15.72$  11.06$  15.91$
|501>   Q  -1.3290  15.32$  11.78$  16.13$
|502>   Q  0.6645  3.26$  13.84$  15$
|503>   Q  0.6645  4.54$  13$  15.21$
|504>   Q  -1.3290  3.97$  13.56$  15.42$
|505>   Q  0.6645  4.48$  13.53$  7.85$
|506>   Q  0.6645  3.16$  13.17$  7.28$
|507>   Q  -1.3290  3.76$  13.14$  7.86$
|508>   Q  0.6645  9.63$  9.19$  18.75$
|509>   Q  0.6645  9.33$  9.89$  17.51$
|510>   Q  -1.3290  9.17$  9.66$  18.3$
|511>   Q  0.6645  18.39$  13.82$  14.49$
|512>   Q  0.6645  17.98$  12.42$  14.75$
|513>   Q  -1.3290  18.3$  13.17$  14.97$
|514>   Q  0.6645  14.98$  3.96$  3.35$
|515>   Q  0.6645  14.6$  5.4$  3.61$
|516>   Q  -1.3290  14.66$  4.6$  3.79$
|517>   Q  0.6645  7.11$  12.37$  5.31$
|518>   Q  0.6645  5.95$  11.59$  4.65$
|519>   Q  -1.3290  6.65$  12.07$  4.67$
|520>   Q  0.6645  18.16$  11.23$  6.99$
|521>   Q  0.6645  18.41$  9.93$  7.63$
|522>   Q  -1.3290  18.1$  10.67$  7.61$
|523>   Q  0.6645  19.54$  11.81$  10.47$
|524>   Q  0.6645  18.79$  11.93$  9.17$
|525>   Q  -1.3290  19.33$  12.15$  9.75$
|526>   Q  0.6645  1.75$  10.94$  13.73$
|527>   Q  0.6645  0.28$  11.34$  13.9$
|528>   Q  -1.3290  1.01$  11.22$  13.47$
|529>   Q  0.6645  7.27$  1.95$  10.49$
|530>   Q  0.6645  5.8$  2.09$  10.64$
|531>   Q  -1.3290  6.55$  1.81$  10.84$
|532>   Q  0.6645  6.37$  9.32$  3.04$
|533>   Q  0.6645  7.74$  8.96$  2.58$
|534>   Q  -1.3290  7.07$  8.84$  3.06$
|535>   Q  0.6645  10.28$  9.41$  4.03$
|536>   Q  0.6645  11.29$  8.88$  5.1$
|537>   Q  -1.3290  10.89$  8.92$  4.33$
|538>   Q  0.6645  18.03$  16.78$  7.87$
|539>   Q  0.6645  19.51$  16.3$  8.23$
|540>   Q  -1.3290  18.84$  16.59$  7.74$
|541>   Q  0.6645  15.78$  19.66$  12.77$
|542>   Q  0.6645  17.24$  20.12$  13.06$
|543>   Q  -1.3290  16.44$  19.9$  13.26$
|544>   Q  0.6645  1.93$  4.15$  10.58$
|545>   Q  0.6645  1.92$  4.06$  9.05$
|546>   Q  -1.3290  2.22$  4.33$  9.8$
|547>   Q  0.6645  5.27$  19.78$  8.57$
|548>   Q  0.6645  5.16$  21.35$  8.39$
|549>   Q  -1.3290  5.52$  20.6$  8.62$
|550>   Q  0.6645  17.91$  4.31$  16.04$
|551>   Q  0.6645  16.44$  3.88$  16.45$
|552>   Q  -1.3290  17.29$  3.78$  16.35$
|553>   Q  0.6645  10.97$  2.45$  17.11$
|554>   Q  0.6645  12.37$  2.52$  17.63$
|555>   Q  -1.3290  11.62$  2.84$  17.45$
|556>   Q  0.6645  17.31$  2.17$  13.27$
|557>   Q  0.6645  15.98$  1.65$  13.67$
|558>   Q  -1.3290  16.5$  2.02$  13.19$
|559>   Q  0.6645  6.29$  14.54$  7.88$
|560>   Q  0.6645  6.85$  13.2$  8.17$
|561>   Q  -1.3290  6.52$  13.93$  8.37$
|562>   Q  0.6645  6.3$  20.59$  14.65$
|563>   Q  0.6645  7.55$  21.41$  14.51$
|564>   Q  -1.3290  7.1$  20.78$  14.78$
|565>   Q  0.6645  10.26$  4.74$  20.2$
|566>   Q  0.6645  10.54$  4.15$  18.78$
|567>   Q  -1.3290  10.12$  4.63$  19.35$
|568>   Q  0.6645  12.56$  13.48$  19.87$
|569>   Q  0.6645  13.55$  13.1$  20.91$
|570>   Q  -1.3290  13.31$  13.22$  20.14$
|571>   Q  0.6645  14.23$  19.62$  10.56$
|572>   Q  0.6645  14.17$  19.74$  8.93$
|573>   Q  -1.3290  14.12$  20.01$  9.77$
|574>   Q  0.6645  11.2$  14.57$  18.24$
|575>   Q  0.6645  11.83$  15.39$  19.31$
|576>   Q  -1.3290  11.27$  14.85$  19.01$
|577>   Q  0.6645  16.46$  15.03$  8.47$
|578>   Q  0.6645  17.91$  15.12$  8.8$
|579>   Q  -1.3290  17.09$  15.2$  8.95$
|580>   Q  0.6645  16.55$  15.09$  3.72$
|581>   Q  0.6645  17.01$  13.85$  2.95$
|582>   Q  -1.3290  16.52$  14.26$  3.51$
|583>   Q  0.6645  6.38$  9.12$  8.52$
|584>   Q  0.6645  6.78$  8.43$  7.17$
|585>   Q  -1.3290  6.62$  9.09$  7.68$
|586>   Q  0.6645  5.53$  9.92$  14.04$
|587>   Q  0.6645  5.55$  9.46$  15.6$
|588>   Q  -1.3290  5.51$  9.39$  14.73$
|589>   Q  0.6645  12.91$  22.38$  5.8$
|590>   Q  0.6645  12.11$  21.08$  6.17$
|591>   Q  -1.3290  12.82$  21.56$  6.02$
|592>   Q  0.6645  8.66$  19.68$  10.34$
|593>   Q  0.6645  8.55$  18.76$  9.24$
|594>   Q  -1.3290  8.99$  19.14$  9.85$
|595>   Q  0.6645  12.47$  9.79$  2.96$
|596>   Q  0.6645  12.95$  11.15$  2.46$
|597>   Q  -1.3290  13.03$  10.4$  2.83$
|598>   Q  0.6645  18.74$  6.51$  15.9$
|599>   Q  0.6645  18.11$  6$  14.56$
|600>   Q  -1.3290  18.68$  6.02$  15.21$
|601>   Q  0.6645  19.9$  12.13$  15.14$
|602>   Q  0.6645  20.48$  10.7$  15.64$
|603>   Q  -1.3290  20.44$  11.44$  15.15$
|604>   Q  0.6645  10.58$  0$  16.6$
|605>   Q  0.6645  10.17$  0.98$  15.44$
|606>   Q  -1.3290  10.29$  0.73$  16.23$
|607>   Q  0.6645  20.07$  7.68$  11.83$
|608>   Q  0.6645  19.43$  8.15$  10.66$
|609>   Q  -1.3290  19.44$  8.02$  11.45$
|610>   Q  0.6645  14.16$  6.98$  17.44$
|611>   Q  0.6645  14.74$  5.63$  17.27$
|612>   Q  -1.3290  14.75$  6.43$  17.52$
|613>   Q  0.6645  19.72$  14.11$  9.76$
|614>   Q  0.6645  20.86$  15.25$  9.89$
|615>   Q  -1.3290  20.1$  14.89$  9.62$
|616>   Q  0.6645  4.42$  17.46$  10.25$
|617>   Q  0.6645  3.9$  17.49$  8.82$
|618>   Q  -1.3290  4.46$  17.65$  9.42$
|619>   Q  0.6645  12.16$  12.27$  6.22$
|620>   Q  0.6645  13.35$  13.22$  6.26$
|621>   Q  -1.3290  12.88$  12.64$  5.92$
|622>   Q  0.6645  11.36$  19.69$  14.54$
|623>   Q  0.6645  10.54$  19$  13.61$
|624>   Q  -1.3290  11.22$  19.39$  13.8$
|625>   Q  0.6645  10.3$  2.31$  4.6$
|626>   Q  0.6645  10.91$  3.33$  5.67$
|627>   Q  -1.3290  10.31$  2.93$  5.25$
|628>   Q  0.6645  6.34$  15.37$  3.61$
|629>   Q  0.6645  6.44$  16.71$  4.06$
|630>   Q  -1.3290  6.01$  16.07$  3.87$
|631>   Q  0.6645  7.02$  14.06$  1.65$
|632>   Q  0.6645  6.92$  13.44$  3.11$
|633>   Q  -1.3290  7.21$  13.97$  2.49$
|634>   Q  0.6645  13.71$  11.5$  17.35$
|635>   Q  0.6645  13.43$  11.72$  18.83$
|636>   Q  -1.3290  13.31$  11.37$  18.09$
|637>   Q  0.6645  6.81$  21.53$  11.4$
|638>   Q  0.6645  6.44$  20.56$  10.23$
|639>   Q  -1.3290  6.8$  20.78$  10.99$
|640>   Q  0.6645  4.25$  11.16$  2.55$
|641>   Q  0.6645  4.17$  9.63$  3.1$
|642>   Q  -1.3290  4.45$  10.31$  2.64$
|643> *
|644> 
|645>                          ****END OF INPUT****
================================================================================

                     *******************************
                     * Energy+Gradient Calculation *
                     *******************************

---------------------------------
CARTESIAN COORDINATES (ANGSTROEM)
---------------------------------
  C     10.540000    9.150000   10.570000
  H      9.700000    8.970000    9.860000
  H     10.050000    9.180000   11.600000
  C     11.280000   10.460000   10.430000
  H     12.040000   10.450000   11.180000
  H     11.620000   10.340000    9.440000
  C     10.300000   11.680000   10.680000
  H      9.710000   11.600000   11.540000
  H      9.550000   11.730000    9.880000
  C     11.040000   12.980000   10.850000
  H     10.610000   13.760000   10.170000
  H     12.170000   12.870000   10.600000
  O     10.920000   13.430000   12.240000
  H     11.010000   14.420000   12.290000
  O     11.500000    8.070000   10.540000
  H     11.140000    7.300000   10.010000
  O     13.350000    7.370000   12.490000
  H     12.900000    7.850000   11.850000
  H     14.210000    7.730000   12.730000
  O     13.280000   16.610000   10.970000
  H     13.890000   15.950000   11.300000
  H     12.430000   16.400000   11.440000
  O      7.980000   12.200000   13.150000
  H      7.780000   12.710000   13.950000
  H      8.110000   12.950000   12.550000
  O     11.060000    6.190000    8.450000
  H     11.790000    6.060000    9.110000
  H     10.300000    5.830000    8.880000
  O      9.120000    7.290000   13.840000
  H      8.600000    7.870000   13.190000
  H      9.810000    6.980000   13.230000
  O     13.980000   18.930000   12.440000
  H     13.880000   17.990000   12.100000
  H     13.250000   19.250000   12.960000
  O      8.200000    5.190000    6.540000
  H      9.050000    4.960000    6.100000
  H      8.320000    5.020000    7.460000
  O     13.610000    3.580000    8.290000
  H     13.420000    3.830000    7.380000
  H     13.050000    4.200000    8.780000
  O      7.800000   11.820000    7.350000
  H      8.770000   11.770000    7.120000
  H      7.470000   10.900000    7.250000
  O      7.540000   13.850000   11.170000
  H      7.040000   13.830000   10.300000
  H      6.900000   14.110000   11.800000
  O      7.500000   13.880000   15.360000
  H      7.190000   13.460000   16.200000
  H      7.910000   14.710000   15.710000
  O     12.610000    4.830000   10.570000
  H     12.060000    4.000000   10.730000
  H     13.380000    4.810000   11.140000
  O      8.850000   16.390000   11.250000
  H      8.520000   15.540000   10.910000
  H      8.870000   16.990000   10.480000
  O     11.130000   16.050000   12.730000
  H     10.170000   16.270000   12.540000
  H     11.280000   16.090000   13.670000
  O     13.040000   15.770000    8.310000
  H     13.280000   15.710000    9.280000
  H     13.700000   15.170000    8.010000
  O     11.880000    5.030000    6.080000
  H     11.850000    5.380000    6.970000
  H     11.260000    5.470000    5.480000
  O      7.840000    9.420000   12.600000
  H      7.170000    9.260000   11.950000
  H      7.930000   10.380000   12.790000
  O     11.670000    8.750000   14.970000
  H     12.440000    8.390000   14.500000
  H     10.860000    8.420000   14.570000
  O     15.300000   10.930000   11.570000
  H     14.560000   11.200000   12.120000
  H     15.330000    9.980000   11.230000
  O     10.370000    5.160000   15.740000
  H     11.070000    4.670000   16.180000
  H     10.820000    5.520000   14.950000
  O     10.590000   11.280000    6.380000
  H     10.360000   11.250000    5.440000
  H     10.710000   10.290000    6.640000
  O      5.650000   14.910000   13.210000
  H      6.380000   14.710000   13.860000
  H      5.310000   15.720000   13.580000
  O      8.800000    9.960000   15.650000
  H      9.030000   10.680000   15.050000
  H      8.400000    9.360000   15.040000
  O     10.990000   11.540000   14.360000
  H     10.860000   11.970000   13.490000
  H     11.240000   10.630000   14.210000
  O     11.310000    8.700000    7.130000
  H     11.050000    7.790000    7.460000
  H     12.260000    8.700000    7.270000
  O     14.570000   14.500000   12.410000
  H     15.420000   14.060000   12.160000
  H     14.070000   13.760000   12.800000
  O      5.360000   11.550000   12.810000
  H      5.120000   11.420000   11.930000
  H      6.330000   11.620000   12.760000
  O     15.090000    7.720000   14.670000
  H     15.560000    8.280000   15.310000
  H     15.820000    7.200000   14.280000
  O     11.460000    5.560000   13.140000
  H     11.100000    4.800000   12.670000
  H     11.940000    6.170000   12.520000
  O     15.430000    8.390000   10.660000
  H     16.150000    8.160000   10.080000
  H     15.050000    7.590000   10.930000
  O      6.420000    6.500000   13.880000
  H      6.020000    7.350000   14.000000
  H      7.350000    6.500000   14.050000
  O     10.260000   16.100000    8.370000
  H     10.510000   17.030000    8.700000
  H     11.050000   15.570000    8.280000
  O      8.540000    6.010000    9.510000
  H      8.530000    5.540000   10.370000
  H      7.600000    6.260000    9.300000
  O     13.800000   12.130000   13.610000
  H     12.870000   12.110000   13.820000
  H     14.220000   12.000000   14.480000
  Q     18.410000   12.080000   17.800000
  Q     17.540000   11.330000   18.660000
  Q     18.000000   11.410000   18.000000
  Q     12.290000   15.900000    4.130000
  Q     11.480000   17.230000    4.410000
  Q     11.790000   16.600000    3.910000
  Q     17.710000   12.480000    4.910000
  Q     18.540000   13.640000    5.480000
  Q     18.200000   12.890000    5.470000
  Q     15.180000   13.250000    7.700000
  Q     15.460000   13.950000    6.360000
  Q     15.250000   13.910000    7.170000
  Q      9.890000   20.560000    5.250000
  Q      9.090000   20.500000    6.570000
  Q      9.600000   20.200000    5.970000
  Q      8.390000   18.300000    5.680000
  Q      7.260000   17.540000    6.520000
  Q      7.680000   17.830000    5.820000
  Q     18.410000   13.890000   12.070000
  Q     20.050000   14.150000   12.050000
  Q     19.210000   14.180000   12.350000
  Q     20.230000   10.810000   12.850000
  Q     19.390000    9.790000   12.020000
  Q     19.650000   10.560000   12.280000
  Q      6.870000   17.440000   15.320000
  Q      5.940000   18.220000   14.350000
  Q      6.170000   17.620000   14.900000
  Q     10.390000   19.220000   16.920000
  Q     11.850000   19.370000   16.550000
  Q     11.020000   19.570000   16.540000
  Q      5.660000    5.460000   12.650000
  Q      4.320000    4.710000   12.310000
  Q      5.160000    4.870000   12.270000
  Q     19.010000   18.510000   10.300000
  Q     19.560000   18.080000   11.660000
  Q     19.620000   18.400000   10.900000
  Q      4.050000    3.650000    9.440000
  Q      5.260000    3.170000    8.820000
  Q      4.670000    3.130000    9.390000
  Q      9.890000   11.890000    2.870000
  Q      8.610000   11.700000    3.810000
  Q      9.450000   11.670000    3.570000
  Q      9.130000    4.190000   14.940000
  Q      8.240000    3.200000   14.960000
  Q      8.690000    3.680000   14.570000
  Q     13.920000   11.040000    5.680000
  Q     14.420000    9.750000    6.430000
  Q     14.380000   10.290000    5.780000
  Q      5.110000   19.770000    4.210000
  Q      5.990000   19.050000    5.260000
  Q      5.360000   19.490000    4.990000
  Q      7.160000    9.200000   17.060000
  Q      5.780000    9.040000   17.930000
  Q      6.320000    9.360000   17.320000
  Q     17.190000   14.010000   16.830000
  Q     15.910000   14.780000   16.310000
  Q     16.380000   14.340000   16.860000
  Q      8.330000    4.480000   12.730000
  Q      7.130000    4.430000   11.700000
  Q      7.960000    4.510000   11.930000
  Q     12.420000   20.540000    9.480000
  Q     10.930000   19.950000    9.490000
  Q     11.550000   20.560000    9.490000
  Q      0.900000    7.420000    9.980000
  Q      2.130000    6.530000   10.260000
  Q      1.610000    7.160000   10.420000
  Q     13.900000   19.430000   17.130000
  Q     13.260000   20.250000   18.200000
  Q     13.650000   20.120000   17.470000
  Q     14.610000    2.150000    5.670000
  Q     13.760000    3.120000    4.850000
  Q     13.860000    2.460000    5.360000
  Q      5.060000   13.730000    5.660000
  Q      5.240000   15.350000    5.700000
  Q      5.290000   14.510000    5.960000
  Q      7.990000    9.510000   19.930000
  Q      7.330000    8.170000   20.350000
  Q      7.610000    8.980000   20.480000
  Q     14.170000   15.260000   18.940000
  Q     13.580000   16.670000   18.340000
  Q     13.820000   16.070000   18.940000
  Q     14.430000    8.600000    8.700000
  Q     14.900000    7.910000    7.410000
  Q     14.360000    8.400000    7.900000
  Q     16.310000    6.170000    7.210000
  Q     15.610000    5.690000    5.920000
  Q     15.890000    6.270000    6.480000
  Q      7.380000    6.620000    6.010000
  Q      7.120000    7.920000    5.070000
  Q      6.920000    7.310000    5.650000
  Q     15.660000   -0.590000   14.400000
  Q     15.520000    0.170000   15.710000
  Q     15.390000    0.040000   14.900000
  Q      1.500000   14.280000    7.330000
  Q      2.080000   15.220000    6.210000
  Q      1.780000   14.480000    6.550000
  Q      3.510000    9.640000   14.750000
  Q      2.680000   10.380000   15.780000
  Q      2.910000   10.130000   15.030000
  Q      6.320000   17.200000    8.680000
  Q      7.480000   16.430000    8.740000
  Q      7.100000   17.100000    8.550000
  Q      9.150000   14.240000    2.440000
  Q     10.400000   15.180000    2.910000
  Q      9.910000   14.660000    2.390000
  Q      7.520000    0.540000    6.330000
  Q      6.920000   -0.140000    7.580000
  Q      7.510000    0.190000    7.090000
  Q     15.070000    4.540000   12.320000
  Q     15.740000    4.460000   10.960000
  Q     15.330000    4.850000   11.570000
  Q     19.140000    2.670000    5.880000
  Q     18.350000    3.910000    6.400000
  Q     18.490000    3.200000    5.970000
  Q      9.600000    5.850000    3.590000
  Q     10.390000    6.960000    4.170000
  Q     10.120000    6.170000    4.130000
  Q     17.610000   17.520000   15.890000
  Q     16.830000   18.390000   14.820000
  Q     16.950000   17.990000   15.580000
  Q      4.930000   16.520000   15.940000
  Q      4.490000   15.120000   16.460000
  Q      4.580000   16.010000   16.500000
  Q     13.180000    9.070000   17.930000
  Q     12.390000    8.640000   16.730000
  Q     12.700000    8.550000   17.490000
  Q      1.490000   15.340000    9.060000
  Q      2.240000   14.110000    9.450000
  Q      1.530000   14.550000    9.250000
  Q     13.750000    6.400000    1.570000
  Q     14.030000    6.030000    0.110000
  Q     13.550000    6.300000    0.750000
  Q     10.040000    8.450000    1.010000
  Q      8.660000    8.970000    0.420000
  Q      9.220000    8.720000    1.020000
  Q     16.730000   18.450000    9.640000
  Q     17.290000   19.540000    8.690000
  Q     17.310000   18.850000    9.190000
  Q     20.030000   17.080000   13.770000
  Q     19.360000   16.130000   12.890000
  Q     19.510000   16.870000   13.150000
  Q      5.260000    5.570000   10.240000
  Q      4.920000    6.010000    8.820000
  Q      5.350000    6.050000    9.540000
  Q     17.710000    7.270000   12.370000
  Q     16.560000    6.190000   12.570000
  Q     17.120000    6.770000   12.810000
  Q     17.520000   17.630000   12.500000
  Q     17.670000   16.850000   11.230000
  Q     17.250000   17.280000   11.790000
  Q      7.400000   16.900000    1.430000
  Q      8.780000   16.510000    1.950000
  Q      8.140000   17.010000    1.870000
  Q     10.510000   10.610000    0.860000
  Q     10.260000   12.150000    0.510000
  Q     10.620000   11.470000    0.900000
  Q      3.850000   13.540000   10.750000
  Q      4.270000   14.780000   11.600000
  Q      3.790000   14.330000   11.080000
  Q      7.950000   18.910000   14.040000
  Q      8.390000   17.850000   13.010000
  Q      8.450000   18.310000   13.720000
  Q      6.930000    1.910000   16.870000
  Q      6.530000    2.370000   15.400000
  Q      7.000000    2.350000   16.120000
  Q      5.790000    5.880000   15.400000
  Q      6.320000    6.400000   16.750000
  Q      5.800000    5.920000   16.250000
  Q     13.610000   17.690000    7.840000
  Q     13.300000   18.940000    7.120000
  Q     13.780000   18.480000    7.600000
  Q      8.970000   17.030000   15.050000
  Q      9.050000   16.570000   16.580000
  Q      9.000000   16.470000   15.710000
  Q      9.810000   17.930000   18.730000
  Q      8.530000   18.200000   17.990000
  Q      9.290000   17.910000   18.070000
  Q      2.650000    7.750000    7.570000
  Q      2.670000    9.040000    6.750000
  Q      2.990000    8.330000    7.080000
  Q      4.420000   13.170000   18.090000
  Q      3.160000   14.040000   18.450000
  Q      3.690000   13.350000   18.510000
  Q      3.040000   10.740000   10.440000
  Q      3.700000   11.490000    9.270000
  Q      3.690000   11.150000   10.040000
  Q     12.950000    4.630000   13.590000
  Q     13.500000    3.280000   13.840000
  Q     13.530000    4.110000   13.740000
  Q     14.220000    4.450000   15.590000
  Q     14.350000    3.270000   16.660000
  Q     14.500000    4.040000   16.310000
  Q      8.370000    7.450000   18.020000
  Q      7.870000    5.920000   17.980000
  Q      7.810000    6.770000   18.040000
  Q      6.750000    2.490000    4.910000
  Q      8.320000    2.380000    4.980000
  Q      7.500000    2.140000    5.100000
  Q     14.440000    7.770000    4.010000
  Q     15.260000    7.660000    2.610000
  Q     14.730000    7.430000    3.260000
  Q      6.900000    3.310000    6.890000
  Q      5.630000    4.240000    7.010000
  Q      6.100000    3.540000    7.080000
  Q      5.660000    3.230000   13.320000
  Q      6.330000    1.930000   13.110000
  Q      5.910000    2.470000   13.550000
  Q     14.940000   15.500000   13.950000
  Q     15.760000   16.490000   14.800000
  Q     15.250000   15.850000   14.690000
  Q      6.110000   19.120000   17.110000
  Q      6.410000   19.720000   18.580000
  Q      6.410000   19.120000   17.940000
  Q     10.790000    2.260000   11.220000
  Q      9.570000    3.170000   11.220000
  Q     10.370000    2.950000   11.390000
  Q      4.450000    7.120000    4.250000
  Q      3.760000    8.020000    5.250000
  Q      3.930000    7.730000    4.510000
  Q      1.800000    8.870000   10.870000
  Q      1.290000   10.090000   11.810000
  Q      1.660000    9.700000   11.090000
  Q      3.620000    5.290000    6.720000
  Q      4.350000    6.520000    6.670000
  Q      4.180000    5.800000    6.970000
  Q      9.210000    0.350000   12.890000
  Q      8.670000    1.730000   13.190000
  Q      8.700000    0.880000   13.260000
  Q     17.800000    7.570000    8.240000
  Q     17.440000    6.520000    9.140000
  Q     17.430000    7.290000    8.900000
  Q     18.550000    7.390000    3.910000
  Q     17.160000    6.840000    4.550000
  Q     17.770000    7.020000    3.940000
  Q      4.160000   18.170000   12.480000
  Q      3.130000   17.040000   12.190000
  Q      3.860000   17.490000   12.090000
  Q     15.250000   11.440000    9.580000
  Q     16.180000   11.510000    8.510000
  Q     15.540000   11.760000    8.930000
  Q     11.980000   14.760000   15.530000
  Q     10.880000   15.930000   15.430000
  Q     11.640000   15.550000   15.370000
  Q     10.820000   -0.270000   11.090000
  Q     11.250000   -0.600000   12.470000
  Q     10.900000   -0.090000   11.900000
  Q     16.760000   16.830000   19.230000
  Q     16.610000   15.410000   18.480000
  Q     16.860000   15.970000   19.090000
  Q      4.390000   20.200000   13.290000
  Q      5.450000   19.840000   12.350000
  Q      4.990000   19.720000   13.040000
  Q      3.750000   11.050000    5.970000
  Q      4.820000   10.110000    6.250000
  Q      4.500000   10.750000    5.850000
  Q     18.020000   11.320000   13.130000
  Q     16.540000   11.190000   13.210000
  Q     17.270000   11.160000   13.500000
  Q      6.060000   17.350000   19.010000
  Q      5.320000   16.170000   18.530000
  Q      5.620000   16.650000   19.100000
  Q      6.900000   13.270000   18.100000
  Q      6.730000   11.890000   17.540000
  Q      6.460000   12.630000   17.780000
  Q     10.050000   18.850000   20.660000
  Q     11.120000   17.790000   20.950000
  Q     10.420000   18.070000   20.590000
  Q     12.260000   12.340000    0.930000
  Q     12.950000   13.300000    1.870000
  Q     12.930000   12.810000    1.200000
  Q     15.790000   -0.130000   10.540000
  Q     16.520000    0.740000   11.590000
  Q     16.420000    0.330000   10.850000
  Q      9.600000    2.130000    9.030000
  Q      8.370000    1.590000    8.350000
  Q      8.770000    2.030000    8.930000
  Q      5.970000    5.400000    3.170000
  Q      6.050000    5.710000    4.700000
  Q      5.700000    5.430000    3.960000
  Q      7.100000    3.750000   17.560000
  Q      8.400000    4.000000   18.600000
  Q      7.570000    4.010000   18.290000
  Q     12.050000    2.220000    8.450000
  Q     11.450000    0.930000    8.870000
  Q     11.470000    1.760000    8.880000
  Q      6.080000    6.670000    0.410000
  Q      6.220000    7.380000    1.740000
  Q      6.110000    6.750000    1.240000
  Q     14.300000   17.470000   16.440000
  Q     13.030000   16.950000   16.270000
  Q     13.530000   17.470000   16.600000
  Q     16.040000   12.120000    3.600000
  Q     16.000000   10.910000    4.470000
  Q     16.320000   11.390000    3.850000
  Q     10.950000   17.250000    6.550000
  Q     10.640000   18.750000    6.080000
  Q     11.100000   18.010000    6.170000
  Q     16.520000   12.630000   10.880000
  Q     17.010000   14.000000   10.280000
  Q     16.910000   13.370000   10.920000
  Q     10.840000   12.930000   16.060000
  Q     11.970000   12.450000   17.020000
  Q     11.440000   13.020000   16.660000
  Q      8.470000    4.290000    1.740000
  Q      7.790000    5.560000    1.460000
  Q      8.460000    5.110000    1.680000
  Q      1.140000   10.700000    7.200000
  Q      1.180000   10.370000    5.660000
  Q      1.460000   10.410000    6.450000
  Q     14.540000   18.560000    4.200000
  Q     13.360000   17.520000    3.890000
  Q     14.150000   17.900000    3.810000
  Q      5.110000    9.290000   10.200000
  Q      5.770000    7.880000   10.000000
  Q      5.700000    8.670000   10.310000
  Q     14.730000    9.690000    1.950000
  Q     14.930000    9.370000    0.600000
  Q     15.120000    9.280000    1.370000
  Q     14.510000   14.230000    3.620000
  Q     13.160000   13.650000    4.180000
  Q     13.640000   14.140000    3.660000
  Q      8.490000   15.330000   18.680000
  Q      7.060000   15.350000   19.250000
  Q      7.650000   15.140000   18.670000
  Q     17.220000   10.040000   16.550000
  Q     17.030000   10.030000   14.920000
  Q     16.870000    9.790000   15.760000
  Q     16.650000   19.620000   18.930000
  Q     16.260000   18.560000   17.940000
  Q     16.530000   18.830000   18.680000
  Q     17.950000    7.350000   18.500000
  Q     17.090000    6.670000   17.380000
  Q     17.810000    6.880000   17.800000
  Q     10.130000   14.230000   20.650000
  Q      9.830000   14.200000   22.160000
  Q      9.800000   13.880000   21.370000
  Q     15.220000    3.070000    8.980000
  Q     15.860000    2.240000   10.130000
  Q     15.810000    2.880000    9.590000
  Q     18.490000    4.770000    8.590000
  Q     17.080000    4.090000    8.800000
  Q     17.650000    4.670000    8.490000
  Q     10.330000    6.590000   19.030000
  Q     11.290000    7.650000   18.450000
  Q     10.690000    7.350000   18.990000
  Q     19.340000    7.780000    6.430000
  Q     17.970000    8.270000    5.910000
  Q     18.540000    8.080000    6.500000
  Q     13.460000    1.080000   14.110000
  Q     12.370000    1.350000   13.160000
  Q     12.820000    1.500000   13.810000
  Q     16.620000    1.120000    5.060000
  Q     16.720000    2.040000    6.230000
  Q     16.400000    1.400000    5.800000
  Q     15.580000   12.470000   16.540000
  Q     15.720000   11.060000   15.910000
  Q     15.320000   11.780000   16.130000
  Q      3.260000   13.840000   15.000000
  Q      4.540000   13.000000   15.210000
  Q      3.970000   13.560000   15.420000
  Q      4.480000   13.530000    7.850000
  Q      3.160000   13.170000    7.280000
  Q      3.760000   13.140000    7.860000
  Q      9.630000    9.190000   18.750000
  Q      9.330000    9.890000   17.510000
  Q      9.170000    9.660000   18.300000
  Q     18.390000   13.820000   14.490000
  Q     17.980000   12.420000   14.750000
  Q     18.300000   13.170000   14.970000
  Q     14.980000    3.960000    3.350000
  Q     14.600000    5.400000    3.610000
  Q     14.660000    4.600000    3.790000
  Q      7.110000   12.370000    5.310000
  Q      5.950000   11.590000    4.650000
  Q      6.650000   12.070000    4.670000
  Q     18.160000   11.230000    6.990000
  Q     18.410000    9.930000    7.630000
  Q     18.100000   10.670000    7.610000
  Q     19.540000   11.810000   10.470000
  Q     18.790000   11.930000    9.170000
  Q     19.330000   12.150000    9.750000
  Q      1.750000   10.940000   13.730000
  Q      0.280000   11.340000   13.900000
  Q      1.010000   11.220000   13.470000
  Q      7.270000    1.950000   10.490000
  Q      5.800000    2.090000   10.640000
  Q      6.550000    1.810000   10.840000
  Q      6.370000    9.320000    3.040000
  Q      7.740000    8.960000    2.580000
  Q      7.070000    8.840000    3.060000
  Q     10.280000    9.410000    4.030000
  Q     11.290000    8.880000    5.100000
  Q     10.890000    8.920000    4.330000
  Q     18.030000   16.780000    7.870000
  Q     19.510000   16.300000    8.230000
  Q     18.840000   16.590000    7.740000
  Q     15.780000   19.660000   12.770000
  Q     17.240000   20.120000   13.060000
  Q     16.440000   19.900000   13.260000
  Q      1.930000    4.150000   10.580000
  Q      1.920000    4.060000    9.050000
  Q      2.220000    4.330000    9.800000
  Q      5.270000   19.780000    8.570000
  Q      5.160000   21.350000    8.390000
  Q      5.520000   20.600000    8.620000
  Q     17.910000    4.310000   16.040000
  Q     16.440000    3.880000   16.450000
  Q     17.290000    3.780000   16.350000
  Q     10.970000    2.450000   17.110000
  Q     12.370000    2.520000   17.630000
  Q     11.620000    2.840000   17.450000
  Q     17.310000    2.170000   13.270000
  Q     15.980000    1.650000   13.670000
  Q     16.500000    2.020000   13.190000
  Q      6.290000   14.540000    7.880000
  Q      6.850000   13.200000    8.170000
  Q      6.520000   13.930000    8.370000
  Q      6.300000   20.590000   14.650000
  Q      7.550000   21.410000   14.510000
  Q      7.100000   20.780000   14.780000
  Q     10.260000    4.740000   20.200000
  Q     10.540000    4.150000   18.780000
  Q     10.120000    4.630000   19.350000
  Q     12.560000   13.480000   19.870000
  Q     13.550000   13.100000   20.910000
  Q     13.310000   13.220000   20.140000
  Q     14.230000   19.620000   10.560000
  Q     14.170000   19.740000    8.930000
  Q     14.120000   20.010000    9.770000
  Q     11.200000   14.570000   18.240000
  Q     11.830000   15.390000   19.310000
  Q     11.270000   14.850000   19.010000
  Q     16.460000   15.030000    8.470000
  Q     17.910000   15.120000    8.800000
  Q     17.090000   15.200000    8.950000
  Q     16.550000   15.090000    3.720000
  Q     17.010000   13.850000    2.950000
  Q     16.520000   14.260000    3.510000
  Q      6.380000    9.120000    8.520000
  Q      6.780000    8.430000    7.170000
  Q      6.620000    9.090000    7.680000
  Q      5.530000    9.920000   14.040000
  Q      5.550000    9.460000   15.600000
  Q      5.510000    9.390000   14.730000
  Q     12.910000   22.380000    5.800000
  Q     12.110000   21.080000    6.170000
  Q     12.820000   21.560000    6.020000
  Q      8.660000   19.680000   10.340000
  Q      8.550000   18.760000    9.240000
  Q      8.990000   19.140000    9.850000
  Q     12.470000    9.790000    2.960000
  Q     12.950000   11.150000    2.460000
  Q     13.030000   10.400000    2.830000
  Q     18.740000    6.510000   15.900000
  Q     18.110000    6.000000   14.560000
  Q     18.680000    6.020000   15.210000
  Q     19.900000   12.130000   15.140000
  Q     20.480000   10.700000   15.640000
  Q     20.440000   11.440000   15.150000
  Q     10.580000    0.000000   16.600000
  Q     10.170000    0.980000   15.440000
  Q     10.290000    0.730000   16.230000
  Q     20.070000    7.680000   11.830000
  Q     19.430000    8.150000   10.660000
  Q     19.440000    8.020000   11.450000
  Q     14.160000    6.980000   17.440000
  Q     14.740000    5.630000   17.270000
  Q     14.750000    6.430000   17.520000
  Q     19.720000   14.110000    9.760000
  Q     20.860000   15.250000    9.890000
  Q     20.100000   14.890000    9.620000
  Q      4.420000   17.460000   10.250000
  Q      3.900000   17.490000    8.820000
  Q      4.460000   17.650000    9.420000
  Q     12.160000   12.270000    6.220000
  Q     13.350000   13.220000    6.260000
  Q     12.880000   12.640000    5.920000
  Q     11.360000   19.690000   14.540000
  Q     10.540000   19.000000   13.610000
  Q     11.220000   19.390000   13.800000
  Q     10.300000    2.310000    4.600000
  Q     10.910000    3.330000    5.670000
  Q     10.310000    2.930000    5.250000
  Q      6.340000   15.370000    3.610000
  Q      6.440000   16.710000    4.060000
  Q      6.010000   16.070000    3.870000
  Q      7.020000   14.060000    1.650000
  Q      6.920000   13.440000    3.110000
  Q      7.210000   13.970000    2.490000
  Q     13.710000   11.500000   17.350000
  Q     13.430000   11.720000   18.830000
  Q     13.310000   11.370000   18.090000
  Q      6.810000   21.530000   11.400000
  Q      6.440000   20.560000   10.230000
  Q      6.800000   20.780000   10.990000
  Q      4.250000   11.160000    2.550000
  Q      4.170000    9.630000    3.100000
  Q      4.450000   10.310000    2.640000

----------------------------
CARTESIAN COORDINATES (A.U.)
----------------------------
  NO LB      ZA    FRAG     MASS         X           Y           Z
   0 C     6.0000    0    12.011   19.917713   17.290994   19.974405
   1 H     1.0000    0     1.008   18.330343   16.950843   18.632700
   2 H     1.0000    0     1.008   18.991748   17.347686   21.920823
   3 C     6.0000    0    12.011   21.316111   19.766535   19.709844
   4 H     1.0000    0     1.008   22.752303   19.747638   21.127138
   5 H     1.0000    0     1.008   21.958618   19.539768   17.839015
   6 C     6.0000    0    12.011   19.464179   22.072001   20.182275
   7 H     1.0000    0     1.008   18.349241   21.920823   21.807440
   8 H     1.0000    0     1.008   18.046885   22.166488   18.670494
   9 C     6.0000    0    12.011   20.862577   24.528645   20.503529
  10 H     1.0000    0     1.008   20.049994   26.002632   19.218515
  11 H     1.0000    0     1.008   22.997967   24.320775   20.031097
  12 O     8.0000    0    15.999   20.635809   25.379022   23.130248
  13 H     1.0000    0     1.008   20.805885   27.249851   23.224734
  14 O     8.0000    0    15.999   21.731851   15.250090   19.917713
  15 H     1.0000    0     1.008   21.051549   13.795001   18.916159
  16 O     8.0000    0    15.999   25.227844   13.927282   23.602679
  17 H     1.0000    0     1.008   24.377467   14.834350   22.393255
  18 H     1.0000    0     1.008   26.853008   14.607583   24.056214
  19 O     8.0000    0    15.999   25.095563   31.388351   20.730296
  20 H     1.0000    0     1.008   26.248296   30.141132   21.353905
  21 H     1.0000    0     1.008   23.489296   30.991509   21.618467
  22 O     8.0000    0    15.999   15.080015   23.054659   24.849899
  23 H     1.0000    0     1.008   14.702069   24.018419   26.361680
  24 H     1.0000    0     1.008   15.325679   24.471953   23.716063
  25 O     8.0000    0    15.999   20.900371   11.697405   15.968186
  26 H     1.0000    0     1.008   22.279871   11.451740   17.215405
  27 H     1.0000    0     1.008   19.464179   11.017103   16.780768
  28 O     8.0000    0    15.999   17.234302   13.776104   26.153810
  29 H     1.0000    0     1.008   16.251645   14.872145   24.925488
  30 H     1.0000    0     1.008   18.538213   13.190288   25.001077
  31 O     8.0000    0    15.999   26.418371   35.772516   23.508193
  32 H     1.0000    0     1.008   26.229399   33.996173   22.865686
  33 H     1.0000    0     1.008   25.038871   36.377228   24.490851
  34 O     8.0000    0    15.999   15.495754    9.807679   12.358809
  35 H     1.0000    0     1.008   17.102022    9.373042   11.527329
  36 H     1.0000    0     1.008   15.722521    9.486425   14.097357
  37 O     8.0000    0    15.999   25.719173    6.765220   15.665830
  38 H     1.0000    0     1.008   25.360125    7.237651   13.946179
  39 H     1.0000    0     1.008   24.660926    7.936850   16.591795
  40 O     8.0000    0    15.999   14.739864   22.336563   13.889487
  41 H     1.0000    0     1.008   16.572898   22.242077   13.454850
  42 H     1.0000    0     1.008   14.116254   20.598015   13.700514
  43 O     8.0000    0    15.999   14.248535   26.172707   21.108241
  44 H     1.0000    0     1.008   13.303672   26.134912   19.464179
  45 H     1.0000    0     1.008   13.039110   26.664036   22.298768
  46 O     8.0000    0    15.999   14.172946   26.229399   29.026193
  47 H     1.0000    0     1.008   13.587131   25.435714   30.613563
  48 H     1.0000    0     1.008   14.947734   27.797871   29.687598
  49 O     8.0000    0    15.999   23.829447    9.127377   19.974405
  50 H     1.0000    0     1.008   22.790097    7.558905   20.276761
  51 H     1.0000    0     1.008   25.284536    9.089583   21.051549
  52 O     8.0000    0    15.999   16.724076   30.972611   21.259419
  53 H     1.0000    0     1.008   16.100467   29.366344   20.616912
  54 H     1.0000    0     1.008   16.761871   32.106447   19.804330
  55 O     8.0000    0    15.999   21.032652   30.330104   24.056214
  56 H     1.0000    0     1.008   19.218515   30.745844   23.697166
  57 H     1.0000    0     1.008   21.316111   30.405693   25.832556
  58 O     8.0000    0    15.999   24.642029   29.800981   15.703624
  59 H     1.0000    0     1.008   25.095563   29.687598   17.536659
  60 H     1.0000    0     1.008   25.889248   28.667145   15.136706
  61 O     8.0000    0    15.999   22.449946    9.505322   11.489535
  62 H     1.0000    0     1.008   22.393255   10.166727   13.171391
  63 H     1.0000    0     1.008   21.278316   10.336802   10.355699
  64 O     8.0000    0    15.999   14.815453   17.801220   23.810549
  65 H     1.0000    0     1.008   13.549336   17.498864   22.582227
  66 H     1.0000    0     1.008   14.985528   19.615357   24.169597
  67 O     8.0000    0    15.999   22.053104   16.535104   28.289200
  68 H     1.0000    0     1.008   23.508193   15.854802   27.401029
  69 H     1.0000    0     1.008   20.522426   15.911494   27.533310
  70 O     8.0000    0    15.999   28.912810   20.654707   21.864131
  71 H     1.0000    0     1.008   27.514413   21.164933   22.903481
  72 H     1.0000    0     1.008   28.969502   18.859467   21.221624
  73 O     8.0000    0    15.999   19.596460    9.750987   29.744289
  74 H     1.0000    0     1.008   20.919268    8.825021   30.575769
  75 H     1.0000    0     1.008   20.446837   10.431288   28.251406
  76 O     8.0000    0    15.999   20.012200   21.316111   12.056453
  77 H     1.0000    0     1.008   19.577563   21.259419   10.280110
  78 H     1.0000    0     1.008   20.238967   19.445282   12.547782
  79 O     8.0000    0    15.999   10.676953   28.175817   24.963282
  80 H     1.0000    0     1.008   12.056453   27.797871   26.191604
  81 H     1.0000    0     1.008   10.034446   29.706495   25.662481
  82 O     8.0000    0    15.999   16.629590   18.821672   29.574214
  83 H     1.0000    0     1.008   17.064227   20.182275   28.440378
  84 H     1.0000    0     1.008   15.873700   17.687837   28.421481
  85 O     8.0000    0    15.999   20.768090   21.807440   27.136467
  86 H     1.0000    0     1.008   20.522426   22.620022   25.492406
  87 H     1.0000    0     1.008   21.240522   20.087789   26.853008
  88 O     8.0000    0    15.999   21.372803   16.440617   13.473747
  89 H     1.0000    0     1.008   20.881474   14.720967   14.097357
  90 H     1.0000    0     1.008   23.168042   16.440617   13.738309
  91 O     8.0000    0    15.999   27.533310   27.401029   23.451501
  92 H     1.0000    0     1.008   29.139577   26.569549   22.979070
  93 H     1.0000    0     1.008   26.588447   26.002632   24.188495
  94 O     8.0000    0    15.999   10.128932   21.826337   24.207392
  95 H     1.0000    0     1.008    9.675398   21.580672   22.544433
  96 H     1.0000    0     1.008   11.961966   21.958618   24.112905
  97 O     8.0000    0    15.999   28.515967   14.588686   27.722282
  98 H     1.0000    0     1.008   29.404139   15.646932   28.931707
  99 H     1.0000    0     1.008   29.895467   13.606028   26.985289
 100 O     8.0000    0    15.999   21.656261   10.506877   24.831001
 101 H     1.0000    0     1.008   20.975960    9.070685   23.942830
 102 H     1.0000    0     1.008   22.563330   11.659610   23.659371
 103 O     8.0000    0    15.999   29.158474   15.854802   20.144481
 104 H     1.0000    0     1.008   30.519077   15.420165   19.048439
 105 H     1.0000    0     1.008   28.440378   14.343021   20.654707
 106 O     8.0000    0    15.999   12.132042   12.283220   26.229399
 107 H     1.0000    0     1.008   11.376151   13.889487   26.456166
 108 H     1.0000    0     1.008   13.889487   12.283220   26.550652
 109 O     8.0000    0    15.999   19.388590   30.424591   15.817008
 110 H     1.0000    0     1.008   19.861022   32.182036   16.440617
 111 H     1.0000    0     1.008   20.881474   29.423036   15.646932
 112 O     8.0000    0    15.999   16.138261   11.357254   17.971296
 113 H     1.0000    0     1.008   16.119364   10.469083   19.596460
 114 H     1.0000    0     1.008   14.361919   11.829686   17.574453
 115 O     8.0000    0    15.999   26.078221   22.922378   25.719173
 116 H     1.0000    0     1.008   24.320775   22.884583   26.116015
 117 H     1.0000    0     1.008   26.871906   22.676714   27.363234
 118 Q     0.6645    0     0.000   34.789858   22.827892   33.637125
 119 Q     0.6645    0     0.000   33.145796   21.410597   35.262290
 120 Q    -1.3290    0     0.000   34.015070   21.561775   34.015070
 121 Q     0.6645    0     0.000   23.224734   30.046646    7.804569
 122 Q     0.6645    0     0.000   21.694056   32.559981    8.333692
 123 Q    -1.3290    0     0.000   22.279871   31.369454    7.388829
 124 Q     0.6645    0     0.000   33.467050   23.583782    9.278555
 125 Q     0.6645    0     0.000   35.035523   25.775864   10.355699
 126 Q    -1.3290    0     0.000   34.393016   24.358570   10.336802
 127 Q     0.6645    0     0.000   28.686043   25.038871   14.550891
 128 Q     0.6645    0     0.000   29.215166   26.361680   12.018658
 129 Q    -1.3290    0     0.000   28.818324   26.286091   13.549336
 130 Q     0.6645    0     0.000   18.689391   38.852769    9.921062
 131 Q     0.6645    0     0.000   17.177611   38.739386   12.415501
 132 Q    -1.3290    0     0.000   18.141371   38.172468   11.281665
 133 Q     0.6645    0     0.000   15.854802   34.581988   10.733644
 134 Q     0.6645    0     0.000   13.719412   33.145796   12.321014
 135 Q    -1.3290    0     0.000   14.513097   33.693817   10.998206
 136 Q     0.6645    0     0.000   34.789858   26.248296   22.808994
 137 Q     0.6645    0     0.000   37.889009   26.739625   22.771200
 138 Q    -1.3290    0     0.000   36.301639   26.796317   23.338118
 139 Q     0.6645    0     0.000   38.229160   20.427940   24.282981
 140 Q     0.6645    0     0.000   36.641790   18.500419   22.714508
 141 Q    -1.3290    0     0.000   37.133119   19.955508   23.205837
 142 Q     0.6645    0     0.000   12.982419   32.956824   28.950604
 143 Q     0.6645    0     0.000   11.224973   34.430810   27.117570
 144 Q    -1.3290    0     0.000   11.659610   33.296974   28.156919
 145 Q     0.6645    0     0.000   19.634255   36.320536   31.974166
 146 Q     0.6645    0     0.000   22.393255   36.603995   31.274968
 147 Q    -1.3290    0     0.000   20.824782   36.981940   31.256070
 148 Q     0.6645    0     0.000   10.695850   10.317905   23.905036
 149 Q     0.6645    0     0.000    8.163617    8.900610   23.262529
 150 Q    -1.3290    0     0.000    9.750987    9.202966   23.186940
 151 Q     0.6645    0     0.000   35.923694   34.978831   19.464179
 152 Q     0.6645    0     0.000   36.963043   34.166249   22.034207
 153 Q    -1.3290    0     0.000   37.076427   34.770961   20.598015
 154 Q     0.6645    0     0.000    7.653391    6.897500   17.839015
 155 Q     0.6645    0     0.000    9.939959    5.990432   16.667385
 156 Q    -1.3290    0     0.000    8.825021    5.914843   17.744528
 157 Q     0.6645    0     0.000   18.689391   22.468844    5.423514
 158 Q     0.6645    0     0.000   16.270542   22.109796    7.199857
 159 Q    -1.3290    0     0.000   17.857912   22.053104    6.746322
 160 Q     0.6645    0     0.000   17.253200    7.917953   28.232508
 161 Q     0.6645    0     0.000   15.571343    6.047124   28.270303
 162 Q    -1.3290    0     0.000   16.421720    6.954192   27.533310
 163 Q     0.6645    0     0.000   26.304988   20.862577   10.733644
 164 Q     0.6645    0     0.000   27.249851   18.424830   12.150939
 165 Q    -1.3290    0     0.000   27.174262   19.445282   10.922617
 166 Q     0.6645    0     0.000    9.656501   37.359886    7.955747
 167 Q     0.6645    0     0.000   11.319460   35.999283    9.939959
 168 Q    -1.3290    0     0.000   10.128932   36.830762    9.429733
 169 Q     0.6645    0     0.000   13.530439   17.385480   32.238728
 170 Q     0.6645    0     0.000   10.922617   17.083124   33.882790
 171 Q    -1.3290    0     0.000   11.943069   17.687837   32.730057
 172 Q     0.6645    0     0.000   32.484392   26.475063   31.804091
 173 Q     0.6645    0     0.000   30.065543   27.930152   30.821433
 174 Q    -1.3290    0     0.000   30.953714   27.098673   31.860783
 175 Q     0.6645    0     0.000   15.741419    8.465973   24.056214
 176 Q     0.6645    0     0.000   13.473747    8.371487   22.109796
 177 Q    -1.3290    0     0.000   15.042220    8.522665   22.544433
 178 Q     0.6645    0     0.000   23.470399   38.814975   17.914604
 179 Q     0.6645    0     0.000   20.654707   37.700036   17.933501
 180 Q    -1.3290    0     0.000   21.826337   38.852769   17.933501
 181 Q     0.6645    0     0.000    1.700754   14.021768   18.859467
 182 Q     0.6645    0     0.000    4.025117   12.339912   19.388590
 183 Q    -1.3290    0     0.000    3.042459   13.530439   19.690946
 184 Q     0.6645    0     0.000   26.267193   36.717379   32.371009
 185 Q     0.6645    0     0.000   25.057769   38.266954   34.393016
 186 Q    -1.3290    0     0.000   25.794762   38.021290   33.013516
 187 Q     0.6645    0     0.000   27.608899    4.062911   10.714747
 188 Q     0.6645    0     0.000   26.002632    5.895946    9.165172
 189 Q    -1.3290    0     0.000   26.191604    4.648726   10.128932
 190 Q     0.6645    0     0.000    9.562014   25.945940   10.695850
 191 Q     0.6645    0     0.000    9.902165   29.007296   10.771439
 192 Q    -1.3290    0     0.000    9.996651   27.419926   11.262768
 193 Q     0.6645    0     0.000   15.098912   17.971296   37.662242
 194 Q     0.6645    0     0.000   13.851693   15.439063   38.455927
 195 Q    -1.3290    0     0.000   14.380816   16.969741   38.701591
 196 Q     0.6645    0     0.000   26.777419   28.837221   35.791413
 197 Q     0.6645    0     0.000   25.662481   31.501735   34.657577
 198 Q    -1.3290    0     0.000   26.116015   30.367899   35.791413
 199 Q     0.6645    0     0.000   27.268748   16.251645   16.440617
 200 Q     0.6645    0     0.000   28.156919   14.947734   14.002871
 201 Q    -1.3290    0     0.000   27.136467   15.873700   14.928836
 202 Q     0.6645    0     0.000   30.821433   11.659610   13.624925
 203 Q     0.6645    0     0.000   29.498625   10.752542   11.187179
 204 Q    -1.3290    0     0.000   30.027748   11.848583   12.245425
 205 Q     0.6645    0     0.000   13.946179   12.509987   11.357254
 206 Q     0.6645    0     0.000   13.454850   14.966631    9.580911
 207 Q    -1.3290    0     0.000   13.076905   13.813898   10.676953
 208 Q     0.6645    0     0.000   29.593111   -1.114938   27.212056
 209 Q     0.6645    0     0.000   29.328550    0.321253   29.687598
 210 Q    -1.3290    0     0.000   29.082885    0.075589   28.156919
 211 Q     0.6645    0     0.000    2.834589   26.985289   13.851693
 212 Q     0.6645    0     0.000    3.930630   28.761632   11.735199
 213 Q    -1.3290    0     0.000    3.363713   27.363234   12.377706
 214 Q     0.6645    0     0.000    6.632939   18.216960   27.873460
 215 Q     0.6645    0     0.000    5.064466   19.615357   29.819878
 216 Q    -1.3290    0     0.000    5.499103   19.142926   28.402584
 217 Q     0.6645    0     0.000   11.943069   32.503290   16.402823
 218 Q     0.6645    0     0.000   14.135151   31.048200   16.516206
 219 Q    -1.3290    0     0.000   13.417056   32.314317   16.157158
 220 Q     0.6645    0     0.000   17.290994   26.909700    4.610932
 221 Q     0.6645    0     0.000   19.653152   28.686043    5.499103
 222 Q    -1.3290    0     0.000   18.727186   27.703385    4.516445
 223 Q     0.6645    0     0.000   14.210741    1.020452   11.961966
 224 Q     0.6645    0     0.000   13.076905   -0.264562   14.324124
 225 Q    -1.3290    0     0.000   14.191843    0.359048   13.398158
 226 Q     0.6645    0     0.000   28.478173    8.579357   23.281426
[...]
 326   Q   :   -0.081515228   -0.089399116   -0.214609983
 327   Q   :    0.190775594    0.232557958    0.028884386
 328   Q   :   -0.115498558   -0.139829752    0.179053499
 329   Q   :   -0.093013077    0.015612962   -0.248734319
 330   Q   :   -0.003110316    0.194545587    0.191860404
 331   Q   :    0.089084404   -0.201211964    0.051169183
 332   Q   :    0.152707247   -0.255912350   -0.069456843
 333   Q   :   -0.259624468    0.057938032   -0.066679526
 334   Q   :    0.103658268    0.188561246    0.137504579
 335   Q   :    0.177164847   -0.202521179   -0.069352247
 336   Q   :   -0.052928502    0.101995262    0.289259131
 337   Q   :   -0.125010841    0.099649914   -0.222265806
 338   Q   :    0.037805360   -0.241697373   -0.064333683
 339   Q   :   -0.102155105    0.088145610    0.193838317
 340   Q   :    0.051515257    0.154220333   -0.128834584
 341   Q   :   -0.237086835   -0.198847971   -0.110171078
 342   Q   :    0.053358466    0.281331617   -0.130708815
 343   Q   :    0.176696473   -0.081606126    0.231197936
 344   Q   :    0.197499200   -0.190286489   -0.139824309
 345   Q   :    0.004710851    0.277062465   -0.037839175
 346   Q   :   -0.212295920   -0.091475125    0.178528141
 347   Q   :    0.149333429    0.083831014   -0.245381251
 348   Q   :    0.017288397   -0.295325872    0.083736877
 349   Q   :   -0.159834989    0.213031763    0.170206900
 350   Q   :    0.262204171    0.126739027    0.014474990
 351   Q   :   -0.168767987   -0.045453654    0.200204654
 352   Q   :   -0.090647139   -0.080208534   -0.216978419
 353   Q   :    0.083291026    0.229509004    0.137298068
 354   Q   :   -0.239889058   -0.131824835    0.041276990
 355   Q   :    0.146729883   -0.103848452   -0.170048911
 356   Q   :   -0.109763867   -0.153723256    0.273669658
 357   Q   :    0.247613533   -0.105502034   -0.151462958
 358   Q   :   -0.141862372    0.252805458   -0.118381143
 359   Q   :    0.095632201   -0.236226186    0.043607967
 360   Q   :   -0.244368710    0.120114856    0.011061601
 361   Q   :    0.163997399    0.110138030   -0.056823605
 362   Q   :   -0.012996684   -0.082474042   -0.288573490
 363   Q   :    0.129762455   -0.189562689    0.183702781
 364   Q   :   -0.112550938    0.270398183    0.099001632
 365   Q   :   -0.034786313    0.254612916    0.029796671
 366   Q   :   -0.082925092   -0.166494089   -0.197047457
 367   Q   :    0.118973147   -0.088732971    0.177743471
 368   Q   :   -0.232693478    0.201010607    0.086020224
 369   Q   :    0.134220079    0.053695078   -0.228542833
 370   Q   :    0.094096240   -0.246226047    0.144952048
 371   Q   :   -0.288461809    0.103315511    0.053774194
 372   Q   :    0.096512833   -0.238621141    0.152552601
 373   Q   :    0.185844191    0.132449893   -0.202966199
 374   Q   :    0.227757177    0.065929530   -0.114939106
 375   Q   :   -0.303099411    0.019124483   -0.120855761
 376   Q   :    0.065633667   -0.075690041    0.229368164
 377   Q   :    0.163359848    0.243703145   -0.039556068
 378   Q   :   -0.105270636   -0.185624675   -0.229838768
 379   Q   :   -0.062524163   -0.059426252    0.280490735
 380   Q   :    0.164074147    0.203996204    0.089568593
 381   Q   :    0.121851234   -0.256950863   -0.097609918
 382   Q   :   -0.286960416    0.041047831    0.009127914
 383   Q   :   -0.105388594    0.256247518    0.026966404
 384   Q   :    0.254611819   -0.081396228    0.136655934
 385   Q   :   -0.146727473   -0.177962541   -0.152214344
 386   Q   :   -0.212115586   -0.143215642   -0.070832157
 387   Q   :   -0.016313410    0.158340302    0.243232852
 388   Q   :    0.238273353   -0.008346767   -0.182798135
 389   Q   :   -0.240707743   -0.159881497   -0.094037655
 390   Q   :    0.013738544    0.125342564    0.244280873
 391   Q   :    0.230672073    0.021184773   -0.156895601
 392   Q   :    0.273748143    0.025795538    0.027622403
 393   Q   :   -0.126052604   -0.153612160   -0.206418099
 394   Q   :   -0.153664190    0.134622892    0.179800086
 395   Q   :    0.112148011   -0.009849155   -0.277501726
 396   Q   :    0.115262677    0.084788455    0.224939476
 397   Q   :   -0.225586624   -0.091433129    0.049765467
 398   Q   :   -0.117834347   -0.076874331   -0.194756666
 399   Q   :    0.245613413   -0.013998756    0.075258964
 400   Q   :   -0.139178953    0.078349359    0.125457552
 401   Q   :    0.185338484    0.125630411   -0.140332753
 402   Q   :    0.006315443   -0.308422694   -0.006891422
 403   Q   :   -0.185786445    0.177794061    0.145039468
 404   Q   :   -0.002022732   -0.015595222   -0.302942917
 405   Q   :    0.043750911    0.248881394    0.171078147
 406   Q   :   -0.052556329   -0.227265347    0.123611981
 407   Q   :    0.322762819   -0.009981492   -0.068089663
 408   Q   :   -0.181800627   -0.213627532   -0.130620470
 409   Q   :   -0.140365692    0.227247581    0.195478783
 410   Q   :   -0.110729489    0.278901560   -0.077532321
 411   Q   :   -0.103836343   -0.139181809    0.212923044
 412   Q   :    0.218486713   -0.147759996   -0.145359912
 413   Q   :   -0.056883744   -0.238314606    0.117470844
 414   Q   :   -0.137581277    0.203493643   -0.027011751
 415   Q   :    0.204654019    0.027041891   -0.085003519
 416   Q   :   -0.137765068   -0.253413417   -0.022530027
 417   Q   :    0.024186518    0.146631283   -0.163973357
 418   Q   :    0.114554648    0.091235017    0.181348439
 419   Q   :   -0.196393421   -0.030619823   -0.198649993
 420   Q   :    0.168602863   -0.184672784    0.099409728
 421   Q   :    0.023570718    0.212295813    0.095560267
 422   Q   :   -0.020109823   -0.314279584    0.018959806
 423   Q   :   -0.242618843    0.131355795   -0.079435795
 424   Q   :    0.267962608    0.176761313    0.054654309
 425   Q   :   -0.110917475    0.092387582    0.230230078
 426   Q   :   -0.107304123   -0.010918439   -0.276222104
 427   Q   :    0.204444981   -0.071776110    0.044821893
 428   Q   :    0.120194825    0.223810862    0.139387326
 429   Q   :   -0.230968590   -0.099614107    0.044698175
 430   Q   :    0.118477884   -0.118513623   -0.180112136
 431   Q   :   -0.186948935    0.185305143   -0.051382623
 432   Q   :    0.021017030   -0.240983803   -0.116749979
 433   Q   :    0.168169599    0.060069694    0.173179215
 434   Q   :   -0.153521250    0.159921386    0.194596891
 435   Q   :   -0.096002492    0.050986861   -0.318404879
 436   Q   :    0.255180419   -0.204437738    0.112340522
 437   Q   :    0.256520535    0.016220412    0.006384642
 438   Q   :   -0.142186845   -0.152152562    0.167372017
 439   Q   :   -0.112718020    0.146001075   -0.177966394
 440   Q   :    0.271238812    0.070508451    0.010331516
 441   Q   :   -0.171131434    0.067879424    0.196614388
 442   Q   :   -0.091887248   -0.135265632   -0.201691479
 443   Q   :    0.093359090    0.075877423    0.206602051
 444   Q   :    0.043145076    0.070287025   -0.220933082
 445   Q   :   -0.128354042   -0.169266820    0.023177114
 446   Q   :    0.038224323    0.289668230    0.074274737
 447   Q   :   -0.101885127   -0.084011009   -0.267324841
 448   Q   :    0.060766083   -0.197628392    0.196549647
 449   Q   :    0.036081620    0.166080414    0.238944462
 450   Q   :   -0.229524448   -0.058590409   -0.134636019
 451   Q   :    0.196949996   -0.107209455   -0.098268451
 452   Q   :    0.109831793    0.128607983   -0.207223631
 453   Q   :    0.024105141    0.129961211    0.267749176
 454   Q   :   -0.139254753   -0.261421217   -0.052449346
 455   Q   :   -0.165967496    0.047383570   -0.177021319
 456   Q   :    0.000498503   -0.219027461    0.187378940
 457   Q   :    0.163180192    0.155118381   -0.005059149
 458   Q   :    0.287579020    0.031773438    0.039264579
 459   Q   :   -0.152429978   -0.164899194    0.092814669
 460   Q   :   -0.129285374    0.132739359   -0.138971648
 461   Q   :   -0.115518367   -0.257567094   -0.000144391
 462   Q   :    0.175678295    0.076764875   -0.175545116
 463   Q   :   -0.063006534    0.177285046    0.184143144
 464   Q   :    0.262944330   -0.100986618   -0.034377320
 465   Q   :   -0.181461059    0.059208214   -0.212313179
 466   Q   :   -0.078544257    0.040006651    0.232078277
 467   Q   :    0.234792908   -0.164010899    0.091704860
 468   Q   :   -0.160402912   -0.077985816   -0.265858448
 469   Q   :   -0.083829136    0.235289736    0.173253920
 470   Q   :    0.093993554   -0.092702998   -0.286056929
 471   Q   :    0.109245572    0.227683342    0.140950017
 472   Q   :   -0.201081178   -0.145517465    0.147795137
 473   Q   :    0.094665061    0.219417173    0.140465833
 474   Q   :    0.128422278   -0.213134384   -0.068157830
 475   Q   :   -0.219883920   -0.000182731   -0.068715487
 476   Q   :   -0.220792459    0.084733679   -0.141219592
 477   Q   :    0.206779348   -0.206604944   -0.089022994
 478   Q   :    0.010159756    0.111089065    0.224378197
 479   Q   :    0.256821252    0.152260565   -0.019187405
 480   Q   :   -0.199701006    0.010902859   -0.209563857
 481   Q   :   -0.052323812   -0.164640551    0.226546797
 482   Q   :    0.190264386   -0.188927095    0.165171766
 483   Q   :    0.071027822    0.066341928   -0.265457749
 484   Q   :   -0.257739990    0.136332418    0.099708375
 485   Q   :    0.027823834    0.241264480   -0.189874280
 486   Q   :   -0.093691893   -0.240388129   -0.080269393
 487   Q   :    0.063939084    0.012294752    0.274027155
 488   Q   :    0.116152176   -0.220763193   -0.164880142
 489   Q   :   -0.012938653    0.279516580   -0.079048694
 490   Q   :   -0.104149740   -0.062364590    0.238882745
 491   Q   :    0.151476337    0.100325327    0.210960226
 492   Q   :   -0.225546588   -0.149251814   -0.008836853
 493   Q   :    0.073695998    0.048018219   -0.205238276
 494   Q   :    0.028196830    0.173314988   -0.214289102
 495   Q   :    0.134877543   -0.293086625   -0.001599226
 496   Q   :   -0.159619861    0.108537188    0.217000441
 497   Q   :    0.071316183   -0.130833862    0.258039484
 498   Q   :   -0.202965958   -0.086880605   -0.201409393
 499   Q   :    0.130412309    0.214163169   -0.059659380
 500   Q   :    0.242523892   -0.096629019    0.090522593
 501   Q   :   -0.242725754    0.033932711    0.157170368
 502   Q   :   -0.010199651    0.076557230   -0.249669930
 503   Q   :    0.268508312    0.066516351   -0.139654765
 504   Q   :   -0.259243051    0.106155677   -0.076975112
 505   Q   :   -0.006596259   -0.179295471    0.225194056
 506   Q   :   -0.218921974    0.163713135   -0.020999118
 507   Q   :    0.219419846    0.061264246   -0.177487695
 508   Q   :    0.001269570   -0.221489062    0.202382756
 509   Q   :   -0.216391561    0.176066632   -0.093602808
 510   Q   :    0.114001162   -0.000935529    0.233795180
 511   Q   :    0.105067018   -0.169254576   -0.141451117
 512   Q   :   -0.283696006    0.053449944    0.052643392
 513   Q   :    0.191401736   -0.086748679    0.151219473
 514   Q   :    0.093557483    0.043350965   -0.215015830
 515   Q   :   -0.187324740   -0.073929554   -0.170741256
 516   Q   :    0.275500095    0.066047921   -0.078965293
 517   Q   :   -0.085244516    0.019291144    0.244841435
 518   Q   :   -0.109001161   -0.066573475    0.253462273
 519   Q   :   -0.111300506   -0.096088827   -0.246749902
 520   Q   :    0.213250292    0.160753089   -0.005108201
 521   Q   :   -0.091902085   -0.257319077   -0.018389727
 522   Q   :   -0.129718809    0.239604019   -0.072960321
 523   Q   :    0.215445304    0.023155795    0.073989192
 524   Q   :    0.175649072    0.165152210   -0.100723888
 525   Q   :   -0.267372471    0.039957986    0.027132590
 526   Q   :    0.097554453   -0.212748466    0.078735357
 527   Q   :   -0.213728737   -0.139427026   -0.113117733
 528   Q   :    0.274271639   -0.132623468    0.058731593
 529   Q   :   -0.047240516    0.273372292    0.054511123
 530   Q   :    0.297637307    0.040560081    0.037002666
 531   Q   :   -0.200201571   -0.155591739    0.195531679
 532   Q   :   -0.095895056    0.126605421   -0.231060640
 533   Q   :   -0.084410495    0.231237802   -0.186019594
 534   Q   :    0.108697184   -0.246865389   -0.075877387
 535   Q   :   -0.028184340    0.023779890    0.265133886
 536   Q   :   -0.292274243   -0.054602698   -0.055125139
 537   Q   :    0.150573098    0.247511373   -0.116371312
 538   Q   :    0.143086711   -0.182567435    0.177459579
 539   Q   :    0.057861329    0.023695178    0.268002888
 540   Q   :    0.137802038   -0.158791328   -0.169441311
 541   Q   :   -0.195532565    0.135453636   -0.086640903
 542   Q   :   -0.255138957    0.087083829   -0.073899158
 543   Q   :    0.078172893   -0.043146262    0.305574581
 544   Q   :    0.182230849   -0.040007690   -0.219621331
 545   Q   :    0.039481313   -0.124693657    0.214042897
 546   Q   :    0.015161367   -0.074661639   -0.235039401
 547   Q   :   -0.035687353    0.208477323    0.028727904
 548   Q   :   -0.013579686   -0.084521257   -0.281188420
 549   Q   :    0.194831201    0.185905183    0.096769744
 550   Q   :   -0.190532850   -0.092756163    0.179330073
 551   Q   :   -0.228639888   -0.070502949   -0.189623956
 552   Q   :    0.271712225   -0.043045112   -0.060209275
 553   Q   :   -0.047376416    0.125170766    0.248234900
 554   Q   :    0.021485312    0.268833044    0.060442391
 555   Q   :    0.172568038   -0.127923663   -0.188213768
 556   Q   :   -0.182843775   -0.137161564    0.126929535
 557   Q   :   -0.073471458   -0.004105342    0.248312834
 558   Q   :    0.052049018   -0.220893054   -0.146330296
 559   Q   :    0.020482791    0.221491072   -0.094003788
 560   Q   :    0.006947714    0.163384136   -0.204015071
 561   Q   :    0.001608524    0.031480173    0.244991559
 562   Q   :   -0.007114607   -0.194185100   -0.046235611
 563   Q   :    0.009100562    0.283623717   -0.079473118
 564   Q   :   -0.240058350   -0.140189844    0.036775000
 565   Q   :    0.231523342   -0.141355616    0.040534288
 566   Q   :   -0.149913756    0.210058711    0.182875447
 567   Q   :   -0.159723559   -0.118969095   -0.200367236
 568   Q   :    0.313491026   -0.085134103    0.022017492
 569   Q   :   -0.209460338   -0.203972115    0.027908687
 570   Q   :   -0.048140912    0.253099961   -0.130993346
 571   Q   :    0.250269103   -0.048699966    0.109244823
 572   Q   :    0.009532728    0.171145208    0.218234528
 573   Q   :   -0.189204773   -0.005468576   -0.193473908
 574   Q   :    0.189118013   -0.163015231   -0.028109099
 575   Q   :   -0.165705680    0.195368914    0.004486418
 576   Q   :    0.000960269   -0.219996687    0.151632603
 577   Q   :    0.174010698    0.018336783   -0.150633307
 578   Q   :    0.102564263   -0.241887168    0.107007443
 579   Q   :   -0.026063763    0.073327422   -0.282105120
 580   Q   :   -0.078258312    0.159266585    0.170831223
 581   Q   :    0.254871560   -0.130680138    0.122970509
 582   Q   :    0.021452693    0.044710913   -0.318641986
 583   Q   :   -0.268953682    0.077504453    0.189547764
 584   Q   :   -0.233852572    0.197915461   -0.041738626
 585   Q   :   -0.015024477   -0.264538914   -0.088184268
 586   Q   :    0.248815716    0.072831621    0.135904549
 587   Q   :   -0.102963530   -0.220067385    0.053555571
 588   Q   :    0.235627955    0.096083369    0.091879069
 589   Q   :   -0.125650748    0.130205307   -0.135945803
 590   Q   :   -0.022538558   -0.067205353    0.246705409
 591   Q   :   -0.210787424   -0.063834752   -0.211109503
 592   Q   :    0.226329991    0.129634029   -0.041406142
 593   Q   :   -0.205664741   -0.097621081    0.103870288
 594   Q   :    0.170061445    0.219916215    0.133810531
 595   Q   :    0.033081918   -0.115113829   -0.234404383
 596   Q   :    0.042135334    0.105751535    0.282457959
 597   Q   :   -0.271620151   -0.154439005   -0.055396170
 598   Q   :    0.231608362    0.049074965   -0.235598584
 599   Q   :   -0.003429586   -0.179555546   -0.189437379
 600   Q   :    0.213377054    0.128816144    0.141740962
 601   Q   :   -0.207735116    0.046990876    0.049799886
 602   Q   :    0.132923655   -0.254933185   -0.089335865
 603   Q   :    0.186620111    0.251807894    0.074878917
 604   Q   :   -0.325784432    0.006094627    0.010888275
 605   Q   :   -0.069623638    0.018148356   -0.271069682
 606   Q   :   -0.100033849   -0.160992562    0.175148985
 607   Q   :    0.164989069    0.147296174    0.084012363
 608   Q   :    0.127721309    0.056192363   -0.236251978
 609   Q   :    0.057676138    0.126657821    0.253569010
 610   Q   :   -0.192987440   -0.191563919   -0.010002662
 611   Q   :   -0.012305243    0.258522961    0.133708073
 612   Q   :   -0.110512989   -0.057090267   -0.211849907
 613   Q   :    0.131901846   -0.198223661    0.090954621
 614   Q   :   -0.069463389    0.267696723   -0.019694167
 615   Q   :   -0.091635931   -0.200987484    0.145651780
 616   Q   :    0.154697201   -0.057266202   -0.131878800

Difference to translation invariance:
           :    0.0001790026   -0.0008408069   -0.0000160662

Difference to rotation invariance:
           :    0.0224248222    0.0115041763   -0.0225012676

Norm of the cartesian gradient     ...    6.1940633983
RMS gradient                       ...    0.1440869548
MAX gradient                       ...    0.3547795287

-------
TIMINGS
-------

Total SCF gradient time            ...      249.801 sec

One electron gradient       ....      27.235 sec  ( 10.9%)
RI-J Coulomb gradient       ....      12.921 sec  (  5.2%)
COSX gradient               ....     161.629 sec  ( 64.7%)
XC gradient                 ....      17.710 sec  (  7.1%)

Maximum memory used throughout the entire SCFGRAD-calculation: 968.9 MB

                            ***************************************
                            *     ORCA property calculations      *
                            ***************************************

                                    ---------------------
                                    Active property flags
                                    ---------------------
   (+) Dipole Moment


------------------------------------------------------------------------------
                       ORCA ELECTRIC PROPERTIES CALCULATION
------------------------------------------------------------------------------

Dipole Moment Calculation                       ... on
Quadrupole Moment Calculation                   ... off
Polarizability Calculation                      ... off
GBWName                                         ... final082.orca.gbw
Electron density                                ... final082.orca.scfp
The origin for moment calculation is the CENTER OF MASS  = (20.311200, 19.800231 21.522648)

-------------
DIPOLE MOMENT
-------------
                                X             Y             Z
Electronic contribution:      0.11905      -0.16326       2.67203
Nuclear contribution   :     -1.58937      -6.89686     -16.62978
                        -----------------------------------------
Total Dipole Moment    :     -1.47031      -7.06012     -13.95775
                        -----------------------------------------
Magnitude (a.u.)       :     15.71070
Magnitude (Debye)      :     39.93342



--------------------
Rotational spectrum 
--------------------
 
Rotational constants in cm-1:     0.001732     0.001081     0.001029 
Rotational constants in MHz :    51.918690    32.396239    30.844286 

 Dipole components along the rotational axes: 
x,y,z [a.u.] :    -8.994632     7.290008   -10.619717 
x,y,z [Debye]:   -22.862536    18.529729   -26.993176 

 

Timings for individual modules:

Sum of individual times         ...     1083.722 sec (=  18.062 min)
GTO integral calculation        ...       14.374 sec (=   0.240 min)   1.3 %
SCF iterations                  ...      815.279 sec (=  13.588 min)  75.2 %
SCF Gradient evaluation         ...      254.069 sec (=   4.234 min)  23.4 %
                             ****ORCA TERMINATED NORMALLY****
TOTAL RUN TIME: 0 days 0 hours 18 minutes 12 seconds 382 msec
