
                                 *****************
                                 * O   R   C   A *
                                 *****************

                                            #,                                       
                                            ###                                      
                                            ####                                     
                                            #####                                    
                                            ######                                   
                                           ########,                                 
                                     ,,################,,,,,                         
                               ,,#################################,,                 
                          ,,##########################################,,             
                       ,#########################################, ''#####,          
                    ,#############################################,,   '####,        
                  ,##################################################,,,,####,       
                ,###########''''           ''''###############################       
              ,#####''   ,,,,##########,,,,          '''####'''          '####       
            ,##' ,,,,###########################,,,                        '##       
           ' ,,###''''                  '''############,,,                           
         ,,##''                                '''############,,,,        ,,,,,,###''
      ,#''                                            '''#######################'''  
     '                                                          ''''####''''         
             ,#######,   #######,   ,#######,      ##                                
            ,#'     '#,  ##    ##  ,#'     '#,    #''#        ######   ,####,        
            ##       ##  ##   ,#'  ##            #'  '#       #        #'  '#        
            ##       ##  #######   ##           ,######,      #####,   #    #        
            '#,     ,#'  ##    ##  '#,     ,#' ,#      #,         ##   #,  ,#        
             '#######'   ##     ##  '#######'  #'      '#     #####' # '####'        



                  #######################################################
                  #                        -***-                        #
                  #          Department of theory and spectroscopy      #
                  #    Directorship and core code : Frank Neese         #
                  #        Max Planck Institute fuer Kohlenforschung    #
                  #                Kaiser Wilhelm Platz 1               #
                  #                 D-45470 Muelheim/Ruhr               #
                  #                      Germany                        #
                  #                                                     #
                  #                  All rights reserved                #
                  #                        -***-                        #
                  #######################################################


                         Program Version 5.0.3 -  RELEASE  -


 With contributions from (in alphabetic order):
   Daniel Aravena         : Magnetic Suceptibility
   Michael Atanasov       : Ab Initio Ligand Field Theory (pilot matlab implementation)
   Alexander A. Auer      : GIAO ZORA, VPT2 properties, NMR spectrum
   Ute Becker             : Parallelization
   Giovanni Bistoni       : ED, misc. LED, open-shell LED, HFLD
   Martin Brehm           : Molecular dynamics
   Dmytro Bykov           : SCF Hessian
   Vijay G. Chilkuri      : MRCI spin determinant printing, contributions to CSF-ICE
   Dipayan Datta          : RHF DLPNO-CCSD density
   Achintya Kumar Dutta   : EOM-CC, STEOM-CC
   Dmitry Ganyushin       : Spin-Orbit,Spin-Spin,Magnetic field MRCI
   Miquel Garcia          : C-PCM and meta-GGA Hessian, CC/C-PCM, Gaussian charge scheme
   Yang Guo               : DLPNO-NEVPT2, F12-NEVPT2, CIM, IAO-localization
   Andreas Hansen         : Spin unrestricted coupled pair/coupled cluster methods
   Benjamin Helmich-Paris : MC-RPA, TRAH-SCF, COSX integrals
   Lee Huntington         : MR-EOM, pCC
   Robert Izsak           : Overlap fitted RIJCOSX, COSX-SCS-MP3, EOM
   Marcus Kettner         : VPT2
   Christian Kollmar      : KDIIS, OOCD, Brueckner-CCSD(T), CCSD density, CASPT2, CASPT2-K
   Simone Kossmann        : Meta GGA functionals, TD-DFT gradient, OOMP2, MP2 Hessian
   Martin Krupicka        : Initial AUTO-CI
   Lucas Lang             : DCDCAS
   Marvin Lechner         : AUTO-CI (C++ implementation), FIC-MRCC
   Dagmar Lenk            : GEPOL surface, SMD
   Dimitrios Liakos       : Extrapolation schemes; Compound Job, initial MDCI parallelization
   Dimitrios Manganas     : Further ROCIS development; embedding schemes
   Dimitrios Pantazis     : SARC Basis sets
   Anastasios Papadopoulos: AUTO-CI, single reference methods and gradients
   Taras Petrenko         : DFT Hessian,TD-DFT gradient, ASA, ECA, R-Raman, ABS, FL, XAS/XES, NRVS
   Peter Pinski           : DLPNO-MP2, DLPNO-MP2 Gradient
   Christoph Reimann      : Effective Core Potentials
   Marius Retegan         : Local ZFS, SOC
   Christoph Riplinger    : Optimizer, TS searches, QM/MM, DLPNO-CCSD(T), (RO)-DLPNO pert. Triples
   Tobias Risthaus        : Range-separated hybrids, TD-DFT gradient, RPA, STAB
   Michael Roemelt        : Original ROCIS implementation
   Masaaki Saitow         : Open-shell DLPNO-CCSD energy and density
   Barbara Sandhoefer     : DKH picture change effects
   Avijit Sen             : IP-ROCIS
   Kantharuban Sivalingam : CASSCF convergence, NEVPT2, FIC-MRCI
   Bernardo de Souza      : ESD, SOC TD-DFT
   Georgi Stoychev        : AutoAux, RI-MP2 NMR, DLPNO-MP2 response
   Willem Van den Heuvel  : Paramagnetic NMR
   Boris Wezisla          : Elementary symmetry handling
   Frank Wennmohs         : Technical directorship


 We gratefully acknowledge several colleagues who have allowed us to
 interface, adapt or use parts of their codes:
   Stefan Grimme, W. Hujo, H. Kruse, P. Pracht,  : VdW corrections, initial TS optimization,
                  C. Bannwarth, S. Ehlert          DFT functionals, gCP, sTDA/sTD-DF
   Ed Valeev, F. Pavosevic, A. Kumar             : LibInt (2-el integral package), F12 methods
   Garnet Chan, S. Sharma, J. Yang, R. Olivares  : DMRG
   Ulf Ekstrom                                   : XCFun DFT Library
   Mihaly Kallay                                 : mrcc  (arbitrary order and MRCC methods)
   Jiri Pittner, Ondrej Demel                    : Mk-CCSD
   Frank Weinhold                                : gennbo (NPA and NBO analysis)
   Christopher J. Cramer and Donald G. Truhlar   : smd solvation model
   Lars Goerigk                                  : TD-DFT with DH, B97 family of functionals
   V. Asgeirsson, H. Jonsson                     : NEB implementation
   FAccTs GmbH                                   : IRC, NEB, NEB-TS, DLPNO-Multilevel, CI-OPT
                                                   MM, QMMM, 2- and 3-layer-ONIOM, Crystal-QMMM,
                                                   LR-CPCM, SF, NACMEs, symmetry and pop. for TD-DFT,
                                                   nearIR, NL-DFT gradient (VV10), updates on ESD,
                                                   ML-optimized integration grids
   S Lehtola, MJT Oliveira, MAL Marques          : LibXC Library
   Liviu Ungur et al                             : ANISO software


 Your calculation uses the libint2 library for the computation of 2-el integrals
 For citations please refer to: http://libint.valeyev.net

 Your ORCA version has been built with support for libXC version: 5.1.0
 For citations please refer to: https://tddft.org/programs/libxc/

 This ORCA versions uses:
   CBLAS   interface :  Fast vector & matrix operations
   LAPACKE interface :  Fast linear algebra routines
   SCALAPACK package :  Parallel linear algebra routines
   Shared memory     :  Shared parallel matrices
   BLAS/LAPACK       :  OpenBLAS 0.3.15  USE64BITINT DYNAMIC_ARCH NO_AFFINITY SkylakeX SINGLE_THREADED
        Core in use  :  SkylakeX
   Copyright (c) 2011-2014, The OpenBLAS Project


================================================================================

----- Orbital basis set information -----
Your calculation utilizes the basis: def2-SVP
   F. Weigend and R. Ahlrichs, Phys. Chem. Chem. Phys. 7, 3297 (2005).

The basis set includes element-specific modifications.

Your calculation utilizes the basis: aug-cc-pVTZ 
    H, B-Ne : Obtained from the ccRepo (grant-hill.group.shef.ac.uk/ccrepo) Feb. 2017
              R. A. Kendall, T. H. Dunning, Jr., R. J. Harrison, J. Chem. Phys. 96, 6796 (1992)
         He : Obtained from the ccRepo (grant-hill.group.shef.ac.uk/ccrepo) Feb. 2017
              D. E. Woon, T. H. Dunning, Jr., J. Chem. Phys. 100, 2975 (1994)
  Li-Be, Na : Obtained from the ccRepo (grant-hill.group.shef.ac.uk/ccrepo) Feb. 2017
              B. P. Prascher, D. E. Woon, K. A. Peterson, T. H. Dunning, Jr., A. K. Wilson, Theor. Chem. Acc. 128, 69 (2011)
         Mg : Obtained from the Peterson Research Group Website (tyr0.chem.wsu.edu/~kipeters) Feb. 2017
              B. P. Prascher, D. E. Woon, K. A. Peterson, T. H. Dunning, Jr., A. K. Wilson, Theor. Chem. Acc. 128, 69 (2011)
      Al-Ar : Obtained from the ccRepo (grant-hill.group.shef.ac.uk/ccrepo) Feb. 2017
              D. E. Woon, T. H. Dunning, Jr., J. Chem. Phys. 98, 1358 (1993)
      Sc-Zn : Obtained from the ccRepo (grant-hill.group.shef.ac.uk/ccrepo) Feb. 2017
              N. B. Balabanov, K. A. Peterson, J. Chem. Phys. 123, 064107 (2005)
              N. B. Balabanov, K. A. Peterson, J. Chem. Phys. 125, 074110 (2006)
      Ga-Kr : Obtained from the ccRepo (grant-hill.group.shef.ac.uk/ccrepo) Feb. 2017
              A. K. Wilson, D. E. Woon, K. A. Peterson, T. H. Dunning, Jr., J. Chem. Phys. 110, 7667 (1999)
     Ag, Au : Obtained from the Peterson Research Group Website (tyr0.chem.wsu.edu/~kipeters) Feb. 2017
              K. A. Peterson, C. Puzzarini, Theor. Chem. Acc. 114, 283 (2005)

Your calculation utilizes the basis: cc-pVTZ 
       H, B-Ne : Obtained from the ccRepo (grant-hill.group.shef.ac.uk/ccrepo) Feb. 2017
                 T. H. Dunning, Jr., J. Chem. Phys. 90, 1007 (1989)
            He : Obtained from the ccRepo (grant-hill.group.shef.ac.uk/ccrepo) Feb. 2017
                 D. E. Woon, T. H. Dunning, Jr., J. Chem. Phys. 100, 2975 (1994)
  Li-Be, Na-Mg : Obtained from the ccRepo (grant-hill.group.shef.ac.uk/ccrepo) Feb. 2017
                 B. P. Prascher, D. E. Woon, K. A. Peterson, T. H. Dunning, Jr., A. K. Wilson, Theor. Chem. Acc. 128, 69 (2011)
         Al-Ar : Obtained from the ccRepo (grant-hill.group.shef.ac.uk/ccrepo) Feb. 2017
                 D. E. Woon, T. H. Dunning, Jr., J. Chem. Phys. 98, 1358 (1993)
            Ca : Obtained from the Peterson Research Group Website (tyr0.chem.wsu.edu/~kipeters) Feb. 2017
                 J. Koput, K. A. Peterson, J. Phys. Chem. 106, 9595 (2002)
         Sc-Zn : Obtained from the ccRepo (grant-hill.group.shef.ac.uk/ccrepo) Feb. 2017
                 N. B. Balabanov, K. A. Peterson, J. Chem. Phys. 123, 064107 (2005)
                 N. B. Balabanov, K. A. Peterson, J. Chem. Phys. 125, 074110 (2006)
         Ga-Kr : Obtained from the ccRepo (grant-hill.group.shef.ac.uk/ccrepo) Feb. 2017
                 A. K. Wilson, D. E. Woon, K. A. Peterson, T. H. Dunning, Jr., J. Chem. Phys. 110, 7667 (1999)
             Y : Obtained from the ccRepo (grant-hill.group.shef.ac.uk/ccrepo) Feb. 2017
                 K. A. Peterson, D. Figgen, M. Dolg, H. Stoll, J. Chem. Phys. 126, 124101 (2007)
        Ag, Au : Obtained from the Peterson Research Group Website (tyr0.chem.wsu.edu/~kipeters) Feb. 2017
                 K. A. Peterson, C. Puzzarini, Theor. Chem. Acc. 114, 283 (2005)

----- AuxJ basis set information -----
Your calculation utilizes the auxiliary basis: def2/J
   F. Weigend, Phys. Chem. Chem. Phys. 8, 1057 (2006).

================================================================================
                                        WARNINGS
                       Please study these warnings very carefully!
================================================================================

WARNING: The globally-selected AuxJ basis set is optimized for use with ECPs
         Make sure a suitable alternative is explicitly given all heavy elements (Z>36)

INFO   : the flag for use of the SHARK integral package has been found!

================================================================================
                                       INPUT FILE
================================================================================
NAME = final001.orca.inp
|  1> ! NoMOPrint PrintBasis #MINIPRINT SMALLPRINT LARGEPRINT
|  2> ! ALLPOP XYZFILE
|  3> #! BP86 3-21G   TightSCF
|  4> ! ENGRAD
|  5> ! B3LYP NormalPNO PModel #DecontractAux
|  6> #! VerySlowConv 
|  7>  %maxcore 5000
|  8>  %scf  maxiter   500  end 
|  9> 
| 10> %pal
| 11>     nprocs 32
| 12> end
| 13> 
| 14> %basis
| 15>     NewGTO O    # New basis for oxygen
| 16>         "aug-cc-pVTZ"
| 17>     end
| 18>     NewGTO C    # New basis for carbon
| 19>         "aug-cc-pVTZ"
| 20>     end
| 21>     NewGTO H    # New basis for hydrogen
| 22>         "cc-pVTZ"
| 23>     end
| 24> end
| 25> 
| 26> * xyz 0   1
| 27>   C  9.45  12.62  11.02  #1
| 28>   H  10.05  13.5  11.2  #2
| 29>   H  8.52  12.84  11.45  #3
| 30>   C  10.23  11.48  11.6  #4
| 31>   H  10.3  11.69  12.64  #5
| 32>   H  9.72  10.53  11.5  #6
| 33>   C  11.69  11.29  11.17  #7
| 34>   H  12.29  11.88  11.92  #8
| 35>   H  11.9  11.81  10.19  #9
| 36>   C  12.21  9.87  11.18  #10
| 37>   H  13.29  9.83  11.02  #11
| 38>   H  11.7  9.28  10.46  #12
| 39>   O  11.96  9.31  12.54  #13
| 40>   H  12.2  8.3  12.5  #14
| 41>   O  9.3  12.45  9.56  #15
| 42>   H  8.82  13.2  9.17  #16
| 43>   O  7.36  13.37  7.31  #17
| 44>   H  6.86  13.96  7.95  #18
| 45>   H  6.92  13.31  6.44  #19
| 46>   O  10.57  11.61  7.41  #20
| 47>   H  10.29  11.67  8.33  #21
| 48>   H  10.63  12.52  7.03  #22
| 49>   O  9.47  15.85  8.79  #23
| 50>   H  9.49  15.58  7.87  #24
| 51>   H  8.94  16.67  8.81  #25
| 52>   O  16.18  10  9.54  #26
| 53>   H  15.55  10.69  9.47  #27
| 54>   H  16.74  10.23  10.28  #28
| 55>   O  7.01  10.51  8.08  #29
| 56>   H  7.72  9.9  8.26  #30
| 57>   H  7.51  11.31  8.16  #31
| 58>   O  17.48  9.71  6.88  #32
| 59>   H  17.08  9.94  7.66  #33
| 60>   H  18.41  9.58  7.06  #34
| 61>   O  15.68  7.45  8.59  #35
| 62>   H  15.82  8.29  9  #36
| 63>   H  15.53  6.86  9.39  #37
| 64>   O  8.49  18.35  9.18  #38
| 65>   H  8.82  18.87  9.91  #39
| 66>   H  7.53  18.5  9.34  #40
| 67>   O  13.16  10.78  6.4  #41
| 68>   H  12.36  11.19  6.66  #42
| 69>   H  12.96  9.87  6.29  #43
| 70>   O  12.42  16.25  9.75  #44
| 71>   H  11.47  16.2  9.6  #45
| 72>   H  12.67  17.2  9.82  #46
| 73>   O  15.77  7.66  12.31  #47
| 74>   H  15.37  8.08  13.08  #48
| 75>   H  15.44  8.06  11.51  #49
| 76>   O  14.39  11.74  8.7  #50
| 77>   H  14.25  11.21  7.86  #51
| 78>   H  14.45  12.69  8.45  #52
| 79>   O  13.61  11.59  14.55  #53
| 80>   H  14.32  12.28  14.48  #54
| 81>   H  13.73  10.98  13.87  #55
| 82>   O  6.2  14.85  9.29  #56
| 83>   H  6.11  15.76  9.71  #57
| 84>   H  5.51  14.21  9.43  #58
| 85>   O  9.29  15.99  11.73  #59
| 86>   H  9.24  15.88  10.72  #60
| 87>   H  10.16  16.38  11.93  #61
| 88>   O  17.68  13.08  8.76  #62
| 89>   H  16.93  12.52  9.01  #63
| 90>   H  18.48  12.54  8.6  #64
| 91>   O  8.58  8.78  13.63  #65
| 92>   H  7.98  8.9  12.86  #66
| 93>   H  9.17  9.61  13.71  #67
| 94>   O  10.07  10.1  4.98  #68
| 95>   H  10.62  10.25  5.78  #69
| 96>   H  10.63  9.63  4.36  #70
| 97>   O  6.37  12.91  4.61  #71
| 98>   H  7.17  12.47  4.32  #72
| 99>   H  5.62  12.38  4.31  #73
|100>   O  6.98  9.48  5.26  #74
|101>   H  7.62  10.23  5.27  #75
|102>   H  6.71  9.6  6.14  #76
|103>   O  13.88  14.28  11.41  #77
|104>   H  13.26  14.85  10.92  #78
|105>   H  14.77  14.57  11.16  #79
|106>   O  12.41  6.27  12.63  #80
|107>   H  12.77  6.12  11.72  #81
|108>   H  13.09  5.99  13.26  #82
|109>   O  7.5  7.72  9.49  #83
|110>   H  8.03  6.99  9.86  #84
|111>   H  6.88  7.26  8.93  #85
|112>   O  9.8  14.22  6.44  #86
|113>   H  8.97  13.77  6.64  #87
|114>   H  9.89  14.32  5.49  #88
|115>   O  17.87  10.93  11.62  #89
|116>   H  17.32  11.28  12.34  #90
|117>   H  18.4  11.71  11.49  #91
|118>   O  4.67  9.26  8.54  #92
|119>   H  3.81  9.67  8.65  #93
|120>   H  5.29  9.92  8.87  #94
|121>   O  10.56  10.14  14.66  #95
|122>   H  11.19  10.03  13.91  #96
|123>   H  10.83  11  15.02  #97
|124>   O  9.72  6.27  13.44  #98
|125>   H  9.54  7.17  13.77  #99
|126>   H  10.62  6.38  13  #100
|127>   Q  0.6645  19.11$  13.14$  5.35$
|128>   Q  0.6645  20.11$  13.86$  4.4$
|129>   Q  -1.3290  19.89$  13.39$  5.09$
|130>   Q  0.6645  18.22$  15.28$  17.1$
|131>   Q  0.6645  18.67$  15.75$  15.71$
|132>   Q  -1.3290  18.63$  15.8$  16.55$
|133>   Q  0.6645  12.71$  20.23$  8.93$
|134>   Q  0.6645  11.47$  20.82$  8.12$
|135>   Q  -1.3290  12.28$  20.79$  8.42$
|136>   Q  0.6645  9$  5.78$  11.9$
|137>   Q  0.6645  9.81$  5.59$  10.63$
|138>   Q  -1.3290  9.11$  5.52$  11.11$
|139>   Q  0.6645  20.65$  12.4$  12.35$
|140>   Q  0.6645  20.04$  13.7$  11.8$
|141>   Q  -1.3290  20.05$  12.93$  12.17$
|142>   Q  0.6645  12.21$  2.95$  9.11$
|143>   Q  0.6645  13.63$  3.63$  9.01$
|144>   Q  -1.3290  12.9$  3.39$  9.36$
|145>   Q  0.6645  15.51$  8.63$  15.04$
|146>   Q  0.6645  14.22$  7.75$  14.97$
|147>   Q  -1.3290  14.72$  8.4$  14.72$
|148>   Q  0.6645  11.75$  7.88$  -0.52$
|149>   Q  0.6645  12.19$  8.45$  0.93$
|150>   Q  -1.3290  11.76$  7.97$  0.34$
|151>   Q  0.6645  14.6$  2.76$  4.69$
|152>   Q  0.6645  13.12$  2.96$  5.07$
|153>   Q  -1.3290  13.97$  3.21$  5.03$
|154>   Q  0.6645  19.03$  7.14$  3.32$
|155>   Q  0.6645  18.64$  7.77$  4.51$
|156>   Q  -1.3290  18.99$  7.77$  3.78$
|157>   Q  0.6645  5.01$  14.44$  11.93$
|158>   Q  0.6645  3.92$  14.89$  12.99$
|159>   Q  -1.3290  4.69$  14.68$  12.68$
|160>   Q  0.6645  10.55$  2.5$  13.24$
|161>   Q  0.6645  10.88$  3.85$  12.8$
|162>   Q  -1.3290  11.08$  3.05$  12.91$
|163>   Q  0.6645  0.47$  15.6$  9.13$
|164>   Q  0.6645  1.98$  15.74$  8.87$
|165>   Q  -1.3290  1.22$  15.94$  9.23$
|166>   Q  0.6645  10.88$  5.63$  14.89$
|167>   Q  0.6645  10.96$  5.33$  16.38$
|168>   Q  -1.3290  11.27$  5.39$  15.59$
|169>   Q  0.6645  17.66$  20.12$  11.91$
|170>   Q  0.6645  17.1$  18.93$  12.76$
|171>   Q  -1.3290  17.42$  19.69$  12.63$
|172>   Q  0.6645  6.39$  20.4$  18.08$
|173>   Q  0.6645  7.43$  19.77$  17.09$
|174>   Q  -1.3290  6.67$  19.88$  17.5$
|175>   Q  0.6645  4.85$  7.45$  17.28$
|176>   Q  0.6645  3.99$  8.43$  16.28$
|177>   Q  -1.3290  4.43$  7.68$  16.55$
|178>   Q  0.6645  9.64$  21$  13.86$
|179>   Q  0.6645  10.87$  20.55$  14.4$
|180>   Q  -1.3290  10.11$  20.43$  14.15$
|181>   Q  0.6645  14.78$  13.34$  12.94$
|182>   Q  0.6645  16.14$  13.48$  13.67$
|183>   Q  -1.3290  15.3$  13.5$  13.6$
|184>   Q  0.6645  6.19$  14.77$  1.42$
|185>   Q  0.6645  4.77$  14.35$  1.62$
|186>   Q  -1.3290  5.39$  14.94$  1.49$
|187>   Q  0.6645  11.69$  16.82$  15.82$
|188>   Q  0.6645  12.98$  16.04$  15.5$
|189>   Q  -1.3290  12.33$  16.59$  15.32$
|190>   Q  0.6645  14.13$  21.21$  12.1$
|191>   Q  0.6645  13.89$  20.69$  13.53$
|192>   Q  -1.3290  14.21$  20.67$  12.76$
|193>   Q  0.6645  4.88$  7.73$  19.63$
|194>   Q  0.6645  6.01$  6.88$  19.07$
|195>   Q  -1.3290  5.46$  7.53$  19.06$
|196>   Q  0.6645  1.09$  14.18$  5.56$
|197>   Q  0.6645  -0.23$  13.95$  6.32$
|198>   Q  -1.3290  0.6$  14.09$  6.26$
|199>   Q  0.6645  16.22$  4.78$  10.67$
|200>   Q  0.6645  14.83$  4.24$  10.92$
|201>   Q  -1.3290  15.39$  4.83$  10.67$
|202>   Q  0.6645  13.81$  11.49$  4.73$
|203>   Q  0.6645  14.75$  11.02$  3.66$
|204>   Q  -1.3290  14.27$  11.58$  4.05$
|205>   Q  0.6645  5.73$  7.12$  11.59$
|206>   Q  0.6645  5.6$  6.74$  13.07$
|207>   Q  -1.3290  5.36$  6.74$  12.25$
|208>   Q  0.6645  10.15$  11.71$  20.06$
|209>   Q  0.6645  10.79$  12.41$  18.91$
|210>   Q  -1.3290  10.66$  11.77$  19.4$
|211>   Q  0.6645  5.77$  11.66$  17.3$
|212>   Q  0.6645  4.62$  11.61$  18.45$
|213>   Q  -1.3290  5.32$  11.89$  18.03$
|214>   Q  0.6645  21.08$  15.68$  11.52$
|215>   Q  0.6645  19.67$  16.12$  11.37$
|216>   Q  -1.3290  20.27$  15.56$  11.42$
|217>   Q  0.6645  17.59$  7.82$  12.1$
|218>   Q  0.6645  18.72$  8.67$  11.48$
|219>   Q  -1.3290  18.33$  7.96$  11.69$
|220>   Q  0.6645  14.87$  6.48$  3.39$
|221>   Q  0.6645  15.43$  7.09$  4.55$
|222>   Q  -1.3290  14.91$  7.05$  3.97$
|223>   Q  0.6645  8.81$  8.62$  20.3$
|224>   Q  0.6645  8.81$  8.85$  18.77$
|225>   Q  -1.3290  9.04$  8.47$  19.48$
|226>   Q  0.6645  12.22$  21.79$  15.86$
|227>   Q  0.6645  13.1$  20.48$  15.79$
|228>   Q  -1.3290  12.61$  21.1$  15.47$
|229>   Q  0.6645  12.64$  19.41$  5.19$
|230>   Q  0.6645  13.67$  20.68$  5.5$
|231>   Q  -1.3290  13.19$  20.08$  5.01$
|232>   Q  0.6645  16.51$  15.72$  3.81$
|233>   Q  0.6645  16.95$  16.91$  2.8$
|234>   Q  -1.3290  17.05$  16.25$  3.4$
|235>   Q  0.6645  18.56$  12.74$  13.92$
|236>   Q  0.6645  17.45$  12.18$  14.93$
|237>   Q  -1.3290  17.82$  12.38$  14.14$
|238>   Q  0.6645  6.04$  16.65$  6.54$
|239>   Q  0.6645  7.05$  17.78$  6.79$
|240>   Q  -1.3290  6.36$  17.33$  6.96$
|241>   Q  0.6645  8.32$  14.98$  19.27$
|242>   Q  0.6645  7.01$  14.58$  18.54$
|243>   Q  -1.3290  7.84$  14.65$  18.64$
|244>   Q  0.6645  2.36$  8.44$  11.64$
|245>   Q  0.6645  3.6$  8.11$  12.6$
|246>   Q  -1.3290  2.92$  8.57$  12.29$
|247>   Q  0.6645  14.23$  5.04$  18.89$
|248>   Q  0.6645  14.37$  3.5$  18.95$
|249>   Q  -1.3290  14.37$  4.25$  18.54$
|250>   Q  0.6645  2.82$  19.85$  10.94$
|251>   Q  0.6645  4.2$  19.11$  10.49$
|252>   Q  -1.3290  3.64$  19.57$  11.01$
|253>   Q  0.6645  11.01$  6.37$  8.88$
|254>   Q  0.6645  11.95$  5.22$  9.51$
|255>   Q  -1.3290  11.43$  5.91$  9.52$
|256>   Q  0.6645  10.37$  6.01$  6.67$
|257>   Q  0.6645  9.36$  7.02$  7.14$
|258>   Q  -1.3290  10.1$  6.64$  7.17$
|259>   Q  0.6645  20.34$  14.17$  8.21$
|260>   Q  0.6645  20$  15.18$  9.36$
|261>   Q  -1.3290  20.34$  14.92$  8.63$
|262>   Q  0.6645  20.3$  9.91$  14.11$
|263>   Q  0.6645  19.01$  10.66$  14.33$
|264>   Q  -1.3290  19.49$  9.99$  14.2$
|265>   Q  0.6645  4.98$  18.13$  3.16$
|266>   Q  0.6645  4.92$  16.66$  2.46$
|267>   Q  -1.3290  4.67$  17.33$  2.98$
|268>   Q  0.6645  3.8$  12.08$  2.55$
|269>   Q  0.6645  3.31$  12.77$  1.27$
|270>   Q  -1.3290  3.73$  12.72$  2$
|271>   Q  0.6645  12.16$  17.38$  5.82$
|272>   Q  0.6645  10.76$  17.95$  6.45$
|273>   Q  -1.3290  11.57$  17.98$  6.1$
|274>   Q  0.6645  1.61$  8.67$  9.2$
|275>   Q  0.6645  1.5$  9.22$  7.8$
|276>   Q  -1.3290  1.67$  9.28$  8.64$
|277>   Q  0.6645  9.09$  17.99$  5.23$
|278>   Q  0.6645  9.16$  19.3$  6.09$
|279>   Q  -1.3290  8.88$  18.51$  5.88$
|280>   Q  0.6645  9.6$  2.8$  8.28$
|281>   Q  0.6645  10.44$  1.91$  7.48$
|282>   Q  -1.3290  10.27$  2.33$  8.18$
|283>   Q  0.6645  3.11$  10.31$  17.1$
|284>   Q  0.6645  3.67$  10.69$  15.73$
|285>   Q  -1.3290  3.28$  10.19$  16.26$
|286>   Q  0.6645  13.74$  17.92$  14.64$
|287>   Q  0.6645  14.72$  18.96$  13.91$
|288>   Q  -1.3290  14.5$  18.31$  14.45$
|289>   Q  0.6645  1.04$  11.52$  14.17$
|290>   Q  0.6645  1.07$  10.74$  15.4$
|291>   Q  -1.3290  0.87$  11.4$  14.95$
|292>   Q  0.6645  17.63$  3.31$  11.52$
|293>   Q  0.6645  18.54$  4.45$  10.93$
|294>   Q  -1.3290  17.82$  4.11$  11.25$
|295>   Q  0.6645  10.06$  10.28$  17.83$
|296>   Q  0.6645  9.96$  9.67$  16.33$
|297>   Q  -1.3290  9.73$  9.8$  17.16$
|298>   Q  0.6645  8.83$  17.44$  2.61$
|299>   Q  0.6645  8.08$  16.62$  3.79$
|300>   Q  -1.3290  8.7$  17.1$  3.4$
|301>   Q  0.6645  10.83$  5.65$  2.84$
|302>   Q  0.6645  10.07$  5.55$  4.18$
|303>   Q  -1.3290  10.29$  5.9$  3.45$
|304>   Q  0.6645  13.22$  19.29$  11.37$
|305>   Q  0.6645  11.87$  19.57$  10.72$
|306>   Q  -1.3290  12.65$  19.25$  10.72$
|307>   Q  0.6645  5.39$  20.26$  3.1$
|308>   Q  0.6645  6.82$  19.56$  3.27$
|309>   Q  -1.3290  6$  19.72$  3.42$
|310>   Q  0.6645  11.85$  13.45$  1.12$
|311>   Q  0.6645  10.35$  13.01$  1.13$
|312>   Q  -1.3290  11.01$  13.54$  1.11$
|313>   Q  0.6645  1.27$  8.85$  13.76$
|314>   Q  0.6645  -0.22$  8.24$  13.53$
|315>   Q  -1.3290  0.41$  8.81$  13.84$
|316>   Q  0.6645  9.85$  20.84$  11$
|317>   Q  0.6645  9.92$  19.77$  12.11$
|318>   Q  -1.3290  9.97$  20.06$  11.31$
|319>   Q  0.6645  16.62$  11.42$  19.67$
|320>   Q  0.6645  15.44$  12.46$  19.1$
|321>   Q  -1.3290  15.97$  12.01$  19.7$
|322>   Q  0.6645  2.02$  13.1$  7.77$
|323>   Q  0.6645  1.95$  11.84$  8.56$
|324>   Q  -1.3290  2.34$  12.47$  8.18$
|325>   Q  0.6645  14.06$  7.98$  17.74$
|326>   Q  0.6645  14.64$  9.31$  18.08$
|327>   Q  -1.3290  14.49$  8.53$  18.24$
|328>   Q  0.6645  9.41$  19$  17.07$
|329>   Q  0.6645  9.47$  19.91$  15.91$
|330>   Q  -1.3290  9.33$  19.74$  16.69$
|331>   Q  0.6645  2.63$  17.28$  16.76$
|332>   Q  0.6645  3.27$  18.36$  15.87$
|333>   Q  -1.3290  2.73$  17.72$  16.05$
|334>   Q  0.6645  11.21$  4.68$  19.87$
|335>   Q  0.6645  12.61$  4.96$  20.69$
|336>   Q  -1.3290  11.84$  4.56$  20.46$
|337>   Q  0.6645  8.7$  21.58$  7.94$
|338>   Q  0.6645  9.22$  20.15$  8.08$
|339>   Q  -1.3290  9.3$  20.94$  7.85$
|340>   Q  0.6645  7$  8.82$  10.79$
|341>   Q  0.6645  5.99$  9.66$  11.66$
|342>   Q  -1.3290  6.63$  9.1$  11.5$
|343>   Q  0.6645  15.11$  15.04$  7.45$
|344>   Q  0.6645  13.94$  15.14$  8.5$
|345>   Q  -1.3290  14.43$  14.8$  7.88$
|346>   Q  0.6645  6.07$  16.26$  12.34$
|347>   Q  0.6645  7.52$  16.41$  11.72$
|348>   Q  -1.3290  6.68$  16.55$  11.81$
|349>   Q  0.6645  11.73$  16.53$  13.42$
|350>   Q  0.6645  12.47$  16.73$  12.07$
|351>   Q  -1.3290  11.86$  16.87$  12.64$
|352>   Q  0.6645  16.97$  13.57$  17.55$
|353>   Q  0.6645  16.8$  14.53$  18.77$
|354>   Q  -1.3290  16.78$  14.3$  17.97$
|355>   Q  0.6645  14.82$  14.61$  15.03$
|356>   Q  0.6645  14.99$  15.13$  16.45$
|357>   Q  -1.3290  14.54$  14.84$  15.78$
|358>   Q  0.6645  17.31$  10.64$  3.4$
|359>   Q  0.6645  17.62$  11.86$  4.31$
|360>   Q  -1.3290  17.73$  11.33$  3.63$
|361>   Q  0.6645  2.98$  15.92$  18.77$
|362>   Q  0.6645  3.97$  15.87$  17.68$
|363>   Q  -1.3290  3.49$  16.27$  18.2$
|364>   Q  0.6645  20.95$  12.68$  15.13$
|365>   Q  0.6645  20$  13.97$  15.49$
|366>   Q  -1.3290  20.24$  13.11$  15.47$
|367>   Q  0.6645  11.94$  1.62$  17.11$
|368>   Q  0.6645  10.47$  1.44$  16.78$
|369>   Q  -1.3290  11.23$  1.16$  17.01$
|370>   Q  0.6645  18.17$  15.63$  13.66$
|371>   Q  0.6645  19.59$  15.32$  13.23$
|372>   Q  -1.3290  18.98$  15.4$  13.79$
|373>   Q  0.6645  13.36$  13.76$  17.9$
|374>   Q  0.6645  12.78$  13.47$  19.35$
|375>   Q  -1.3290  13.28$  13.35$  18.65$
|376>   Q  0.6645  5.64$  16.3$  4.18$
|377>   Q  0.6645  6.47$  15$  4.14$
|378>   Q  -1.3290  6.34$  15.82$  4.33$
|379>   Q  0.6645  9.65$  5.9$  18.39$
|380>   Q  0.6645  11.14$  6.29$  18.52$
|381>   Q  -1.3290  10.47$  5.84$  18.23$
|382>   Q  0.6645  5.12$  19.67$  5.34$
|383>   Q  0.6645  4.4$  18.83$  6.46$
|384>   Q  -1.3290  4.65$  19.54$  6.04$
|385>   Q  0.6645  12.5$  8.25$  3.77$
|386>   Q  0.6645  11.23$  7.76$  3.35$
|387>   Q  -1.3290  11.81$  8.34$  3.39$
|388>   Q  0.6645  3.44$  7.03$  3.78$
|389>   Q  0.6645  4.22$  7.09$  5$
|390>   Q  -1.3290  3.96$  6.71$  4.31$
|391>   Q  0.6645  20.06$  7.03$  12.55$
|392>   Q  0.6645  21.29$  6.21$  13.15$
|393>   Q  -1.3290  20.9$  6.86$  12.74$
|394>   Q  0.6645  8.45$  2.16$  10.86$
|395>   Q  0.6645  8.2$  3.73$  10.62$
|396>   Q  -1.3290  8.04$  2.88$  10.59$
|397>   Q  0.6645  13.33$  3.27$  17.05$
|398>   Q  0.6645  12.41$  3.39$  15.69$
|399>   Q  -1.3290  12.95$  3.04$  16.25$
|400>   Q  0.6645  1.28$  16.04$  11.07$
|401>   Q  0.6645  1.01$  16.51$  12.51$
|402>   Q  -1.3290  1.08$  15.92$  11.89$
|403>   Q  0.6645  12.55$  11.55$  20.33$
|404>   Q  0.6645  14.06$  11.58$  20.54$
|405>   Q  -1.3290  13.28$  11.34$  20.73$
|406>   Q  0.6645  13.95$  11.43$  17.81$
|407>   Q  0.6645  13.91$  11.2$  16.3$
|408>   Q  -1.3290  14.26$  11.2$  17.08$
|409>   Q  0.6645  2.54$  14.02$  3$
|410>   Q  0.6645  1.35$  13.18$  3.53$
|411>   Q  -1.3290  1.82$  13.86$  3.47$
|412>   Q  0.6645  1.53$  11.24$  5.3$
|413>   Q  0.6645  2.54$  11.4$  6.43$
|414>   Q  -1.3290  2.25$  11.08$  5.72$
|415>   Q  0.6645  4.6$  11.62$  12.91$
|416>   Q  0.6645  4.16$  10.45$  12.11$
|417>   Q  -1.3290  4.59$  11.14$  12.26$
|418>   Q  0.6645  11.55$  0.99$  5.06$
|419>   Q  0.6645  12.33$  1.36$  6.21$
|420>   Q  -1.3290  11.7$  1.47$  5.7$
|421>   Q  0.6645  4.4$  12.39$  10.62$
|422>   Q  0.6645  3.69$  12.87$  9.32$
|423>   Q  -1.3290  4.16$  12.94$  10.03$
|424>   Q  0.6645  17.2$  6.13$  6.12$
|425>   Q  0.6645  17.03$  7.75$  6.07$
|426>   Q  -1.3290  17.19$  6.94$  5.79$
|427>   Q  0.6645  17.13$  16.45$  6.77$
|428>   Q  0.6645  16.01$  17.2$  6.07$
|429>   Q  -1.3290  16.34$  16.55$  6.53$
|430>   Q  0.6645  8.27$  1.27$  14.12$
|431>   Q  0.6645  9.06$  2.32$  14.82$
|432>   Q  -1.3290  8.94$  1.72$  14.23$
|433>   Q  0.6645  14.06$  4.33$  3.7$
|434>   Q  0.6645  13.22$  4.95$  2.5$
|435>   Q  -1.3290  13.93$  4.71$  2.92$
|436>   Q  0.6645  8.23$  6.91$  19.33$
|437>   Q  0.6645  7.8$  5.56$  20.02$
|438>   Q  -1.3290  7.87$  6.13$  19.42$
|439>   Q  0.6645  15.45$  8.88$  3.41$
|440>   Q  0.6645  15.59$  9.51$  2.06$
|441>   Q  -1.3290  15.73$  9.46$  2.87$
|442>   Q  0.6645  7.79$  10.89$  16.17$
|443>   Q  0.6645  7.1$  10.36$  14.91$
|444>   Q  -1.3290  7.14$  10.77$  15.64$
|445>   Q  0.6645  10.81$  14.43$  18.59$
|446>   Q  0.6645  9.53$  14.07$  17.78$
|447>   Q  -1.3290  10.36$  14.09$  17.95$
|448>   Q  0.6645  19.79$  8$  17.23$
|449>   Q  0.6645  19.03$  6.95$  18.06$
|450>   Q  -1.3290  19.13$  7.69$  17.67$
|451>   Q  0.6645  15.99$  11.82$  16.84$
|452>   Q  0.6645  17.33$  11.48$  17.46$
|453>   Q  -1.3290  16.82$  11.85$  16.91$
|454>   Q  0.6645  6.56$  3.81$  14.88$
|455>   Q  0.6645  7.29$  5.21$  14.63$
|456>   Q  -1.3290  7.13$  4.35$  14.57$
|457>   Q  0.6645  4.84$  21.05$  11.17$
|458>   Q  0.6645  6.01$  21.51$  10.22$
|459>   Q  -1.3290  5.5$  21.53$  10.89$
|460>   Q  0.6645  18$  4.53$  13.18$
|461>   Q  0.6645  17.52$  4.83$  14.69$
|462>   Q  -1.3290  17.75$  4.36$  13.99$
|463>   Q  0.6645  5.71$  7.26$  15.34$
|464>   Q  0.6645  6.88$  7.97$  14.57$
|465>   Q  -1.3290  6.29$  7.37$  14.7$
|466>   Q  0.6645  20.05$  11.38$  9.74$
|467>   Q  0.6645  20.02$  10.65$  8.4$
|468>   Q  -1.3290  19.91$  11.31$  8.91$
|469>   Q  0.6645  2.89$  16.23$  14.71$
|470>   Q  0.6645  1.98$  15.03$  14.78$
|471>   Q  -1.3290  2.57$  15.53$  14.44$
|472>   Q  0.6645  14.64$  2.79$  15.15$
|473>   Q  0.6645  16.07$  2.9$  14.45$
|474>   Q  -1.3290  15.43$  2.54$  14.89$
|475>   Q  0.6645  6.08$  2.55$  12.82$
|476>   Q  0.6645  5.27$  1.46$  12.11$
|477>   Q  -1.3290  5.42$  2.02$  12.72$
|478>   Q  0.6645  12.62$  0.29$  10.33$
|479>   Q  0.6645  13.45$  1.35$  11.21$
|480>   Q  -1.3290  13.26$  0.58$  10.86$
|481>   Q  0.6645  2.36$  13.79$  16.29$
|482>   Q  0.6645  1.23$  12.87$  15.86$
|483>   Q  -1.3290  1.56$  13.59$  16.18$
|484>   Q  0.6645  12.46$  8.74$  19.39$
|485>   Q  0.6645  10.95$  8.19$  19.54$
|486>   Q  -1.3290  11.83$  8.17$  19.58$
|487>   Q  0.6645  12.99$  15.11$  6.25$
|488>   Q  0.6645  12.37$  15.35$  4.89$
|489>   Q  -1.3290  12.79$  15.55$  5.57$
|490>   Q  0.6645  8.4$  8.96$  1.26$
|491>   Q  0.6645  9.93$  8.72$  0.71$
|492>   Q  -1.3290  9.15$  9.08$  0.76$
|493>   Q  0.6645  4.69$  5.19$  11.81$
|494>   Q  0.6645  4.67$  3.55$  11.76$
|495>   Q  -1.3290  4.36$  4.36$  11.75$
|496>   Q  0.6645  18.08$  4.95$  7.59$
|497>   Q  0.6645  17.97$  4.03$  6.38$
|498>   Q  -1.3290  17.66$  4.54$  6.97$
|499>   Q  0.6645  14.03$  12.43$  2.19$
|500>   Q  0.6645  13.65$  11.84$  0.77$
|501>   Q  -1.3290  13.74$  12.45$  1.39$
|502>   Q  0.6645  6.56$  10.71$  19.64$
|503>   Q  0.6645  6.65$  9.23$  19.43$
|504>   Q  -1.3290  6.75$  9.92$  19.87$
|505>   Q  0.6645  15.75$  17.14$  8.41$
|506>   Q  0.6645  15.72$  18.28$  9.47$
|507>   Q  -1.3290  15.9$  17.49$  9.17$
|508>   Q  0.6645  15.91$  20.52$  8.48$
|509>   Q  0.6645  15.13$  21.04$  9.57$
|510>   Q  -1.3290  15.45$  20.45$  9.14$
|511>   Q  0.6645  9.02$  3.27$  17.54$
|512>   Q  0.6645  8.66$  4.07$  16.37$
|513>   Q  -1.3290  9.01$  3.42$  16.75$
|514>   Q  0.6645  9.7$  17.16$  17.78$
|515>   Q  0.6645  9.52$  16.51$  16.37$
|516>   Q  -1.3290  9.86$  17.03$  16.93$
|517>   Q  0.6645  5.4$  5.14$  7.81$
|518>   Q  0.6645  5.39$  3.88$  8.84$
|519>   Q  -1.3290  5.6$  4.35$  8.12$
|520>   Q  0.6645  20.72$  8.51$  6.98$
|521>   Q  0.6645  19.74$  8.26$  8.09$
|522>   Q  -1.3290  20.1$  8.76$  7.5$
|523>   Q  0.6645  3.72$  6.35$  7.18$
|524>   Q  0.6645  4.42$  7.64$  7.61$
|525>   Q  -1.3290  4.38$  6.83$  7.35$
|526>   Q  0.6645  7.73$  7.88$  5.9$
|527>   Q  0.6645  6.91$  6.47$  6.2$
|528>   Q  -1.3290  7.59$  7.07$  6.21$
|529>   Q  0.6645  8.83$  14.9$  2.47$
|530>   Q  0.6645  8.32$  13.4$  2.37$
|531>   Q  -1.3290  8.32$  14.26$  2.22$
|532>   Q  0.6645  14.2$  5.77$  16.51$
|533>   Q  0.6645  12.81$  6.16$  16.23$
|534>   Q  -1.3290  13.59$  6.33$  16.46$
|535>   Q  0.6645  17.63$  7.21$  8.33$
|536>   Q  0.6645  18.55$  7.03$  9.58$
|537>   Q  -1.3290  18.34$  7.02$  8.73$
|538>   Q  0.6645  16.73$  13.68$  5.72$
|539>   Q  0.6645  17.43$  12.5$  6.59$
|540>   Q  -1.3290  17.17$  12.93$  5.87$
|541>   Q  0.6645  15.32$  5.68$  14.52$
|542>   Q  0.6645  15$  5.79$  13.02$
|543>   Q  -1.3290  14.86$  5.55$  13.82$
|544>   Q  0.6645  16.77$  2.59$  16.72$
|545>   Q  0.6645  18.33$  2.39$  17.17$
|546>   Q  -1.3290  17.47$  2.42$  17.23$
|547>   Q  0.6645  4.61$  15.4$  7.87$
|548>   Q  0.6645  3.55$  16.3$  7.17$
|549>   Q  -1.3290  3.82$  15.73$  7.71$
|550>   Q  0.6645  5.01$  14.46$  16.31$
|551>   Q  0.6645  4.67$  13.39$  17.46$
|552>   Q  -1.3290  4.52$  14.02$  16.89$
|553>   Q  0.6645  11$  13.63$  16.16$
|554>   Q  0.6645  11.95$  12.96$  15.11$
|555>   Q  -1.3290  11.19$  13.2$  15.44$
|556>   Q  0.6645  6.54$  8.96$  3.37$
|557>   Q  0.6645  6.01$  9.6$  2.13$
|558>   Q  -1.3290  6.53$  9.11$  2.57$
|559>   Q  0.6645  2.77$  13.46$  11.71$
|560>   Q  0.6645  1.63$  13.96$  12.6$
|561>   Q  -1.3290  2.17$  13.4$  12.29$
|562>   Q  0.6645  8.08$  2.72$  6.76$
|563>   Q  0.6645  7.44$  3.86$  7.63$
|564>   Q  -1.3290  7.99$  3.52$  7.07$
|565>   Q  0.6645  11.23$  14.18$  21.18$
|566>   Q  0.6645  12.21$  15.25$  20.64$
|567>   Q  -1.3290  11.71$  14.57$  20.6$
|568>   Q  0.6645  5.36$  19.4$  16.13$
|569>   Q  0.6645  5.1$  19.37$  14.66$
|570>   Q  -1.3290  4.9$  19.51$  15.44$
|571>   Q  0.6645  9.53$  4.08$  6.09$
|572>   Q  0.6645  10.75$  3.45$  5.78$
|573>   Q  -1.3290  10.29$  4.1$  5.8$
|574>   Q  0.6645  6.17$  0.61$  13.89$
|575>   Q  0.6645  6.69$  -0.72$  14.18$
|576>   Q  -1.3290  6.67$  0.08$  14.27$
|577>   Q  0.6645  1.93$  17.31$  5.35$
|578>   Q  0.6645  3.27$  17.35$  4.5$
|579>   Q  -1.3290  2.78$  17.21$  5.21$
|580>   Q  0.6645  14.18$  17.51$  3.11$
|581>   Q  0.6645  12.92$  17.52$  2.22$
|582>   Q  -1.3290  13.6$  17.15$  2.64$
|583>   Q  0.6645  20.49$  5.79$  10.63$
|584>   Q  0.6645  20.53$  4.33$  11.16$
|585>   Q  -1.3290  20.24$  4.98$  10.68$
|586>   Q  0.6645  14.42$  3.54$  7.02$
|587>   Q  0.6645  15.66$  4.05$  7.87$
|588>   Q  -1.3290  15.04$  3.53$  7.64$
|589>   Q  0.6645  8.25$  10.95$  2.59$
|590>   Q  0.6645  9.29$  11.04$  3.66$
|591>   Q  -1.3290  8.64$  11.35$  3.2$
|592>   Q  0.6645  15.7$  2.02$  8.9$
|593>   Q  0.6645  16.08$  1.45$  10.2$
|594>   Q  -1.3290  16.11$  1.49$  9.38$
|595>   Q  0.6645  16.67$  16.03$  12.32$
|596>   Q  0.6645  16.07$  16.9$  13.45$
|597>   Q  -1.3290  16.67$  16.6$  12.96$
|598>   Q  0.6645  6.19$  14.86$  14.13$
|599>   Q  0.6645  7.39$  15.09$  14.96$
|600>   Q  -1.3290  6.6$  15.01$  14.84$
|601>   Q  0.6645  14.88$  13.45$  4.34$
|602>   Q  0.6645  14.48$  14.88$  4.41$
|603>   Q  -1.3290  14.99$  14.28$  4.23$
|604>   Q  0.6645  11.79$  7.72$  6.47$
|605>   Q  0.6645  13.27$  7.63$  6.54$
|606>   Q  -1.3290  12.54$  7.95$  6.29$
|607>   Q  0.6645  9.52$  14.45$  14.62$
|608>   Q  0.6645  9.28$  15.5$  13.52$
|609>   Q  -1.3290  9.31$  15.22$  14.33$
|610>   Q  0.6645  6.15$  18.31$  12.93$
|611>   Q  0.6645  5.1$  19.3$  12.48$
|612>   Q  -1.3290  5.7$  19.02$  12.98$
|613>   Q  0.6645  10.5$  15.91$  3.32$
|614>   Q  0.6645  10.87$  14.58$  2.68$
|615>   Q  -1.3290  10.7$  15.11$  3.32$
|616>   Q  0.6645  18.09$  9.25$  18.86$
|617>   Q  0.6645  18.74$  10.62$  18.9$
|618>   Q  -1.3290  18.12$  10.08$  19.04$
|619>   Q  0.6645  5.71$  17.83$  8.79$
|620>   Q  0.6645  5.68$  17.58$  10.43$
|621>   Q  -1.3290  5.54$  17.98$  9.65$
|622>   Q  0.6645  14.33$  3.68$  13.26$
|623>   Q  0.6645  13.15$  3.07$  12.77$
|624>   Q  -1.3290  13.93$  3.31$  12.71$
|625>   Q  0.6645  3.58$  12.79$  14.13$
|626>   Q  0.6645  4.74$  12.69$  15.04$
|627>   Q  -1.3290  4.16$  12.38$  14.53$
|628>   Q  0.6645  15.23$  17.26$  16.23$
|629>   Q  0.6645  16.64$  16.99$  16.44$
|630>   Q  -1.3290  15.84$  16.96$  16.67$
|631>   Q  0.6645  17.83$  9.11$  15.05$
|632>   Q  0.6645  17.57$  8.72$  16.44$
|633>   Q  -1.3290  17.36$  8.84$  15.63$
|634>   Q  0.6645  15.99$  7.74$  19.36$
|635>   Q  0.6645  16.93$  6.43$  19.75$
|636>   Q  -1.3290  16.56$  7.25$  19.79$
|637>   Q  0.6645  3.81$  10.99$  4.75$
|638>   Q  0.6645  5.27$  10.43$  4.83$
|639>   Q  -1.3290  4.61$  10.88$  4.48$
|640>   Q  0.6645  0.53$  10.41$  12.41$
|641>   Q  0.6645  1.18$  11.74$  12.04$
|642>   Q  -1.3290  0.55$  11.22$  12.18$
|643>   Q  0.6645  15.79$  1.83$  12.32$
|644>   Q  0.6645  17.08$  1.1$  12.65$
|645>   Q  -1.3290  16.53$  1.54$  12.16$
|646>   Q  0.6645  10.8$  1.53$  11.19$
|647>   Q  0.6645  10.32$  1.08$  9.81$
|648>   Q  -1.3290  10.35$  1.07$  10.66$
|649>   Q  0.6645  16.84$  6.8$  15.65$
|650>   Q  0.6645  17.14$  5.86$  16.84$
|651>   Q  -1.3290  16.8$  6.05$  16.08$
|652>   Q  0.6645  14.85$  6.25$  20.99$
|653>   Q  0.6645  13.65$  6.98$  20.35$
|654>   Q  -1.3290  14.06$  6.31$  20.69$
|655>   Q  0.6645  16.47$  15.83$  10.17$
|656>   Q  0.6645  17.22$  14.45$  10.13$
|657>   Q  -1.3290  16.69$  15.04$  10.42$
|658> *
|659> 
|660>                          ****END OF INPUT****
================================================================================

                     *******************************
                     * Energy+Gradient Calculation *
                     *******************************

---------------------------------
CARTESIAN COORDINATES (ANGSTROEM)
---------------------------------
  C      9.450000   12.620000   11.020000
  H     10.050000   13.500000   11.200000
  H      8.520000   12.840000   11.450000
  C     10.230000   11.480000   11.600000
  H     10.300000   11.690000   12.640000
  H      9.720000   10.530000   11.500000
  C     11.690000   11.290000   11.170000
  H     12.290000   11.880000   11.920000
  H     11.900000   11.810000   10.190000
  C     12.210000    9.870000   11.180000
  H     13.290000    9.830000   11.020000
  H     11.700000    9.280000   10.460000
  O     11.960000    9.310000   12.540000
  H     12.200000    8.300000   12.500000
  O      9.300000   12.450000    9.560000
  H      8.820000   13.200000    9.170000
  O      7.360000   13.370000    7.310000
  H      6.860000   13.960000    7.950000
  H      6.920000   13.310000    6.440000
  O     10.570000   11.610000    7.410000
  H     10.290000   11.670000    8.330000
  H     10.630000   12.520000    7.030000
  O      9.470000   15.850000    8.790000
  H      9.490000   15.580000    7.870000
  H      8.940000   16.670000    8.810000
  O     16.180000   10.000000    9.540000
  H     15.550000   10.690000    9.470000
  H     16.740000   10.230000   10.280000
  O      7.010000   10.510000    8.080000
  H      7.720000    9.900000    8.260000
  H      7.510000   11.310000    8.160000
  O     17.480000    9.710000    6.880000
  H     17.080000    9.940000    7.660000
  H     18.410000    9.580000    7.060000
  O     15.680000    7.450000    8.590000
  H     15.820000    8.290000    9.000000
  H     15.530000    6.860000    9.390000
  O      8.490000   18.350000    9.180000
  H      8.820000   18.870000    9.910000
  H      7.530000   18.500000    9.340000
  O     13.160000   10.780000    6.400000
  H     12.360000   11.190000    6.660000
  H     12.960000    9.870000    6.290000
  O     12.420000   16.250000    9.750000
  H     11.470000   16.200000    9.600000
  H     12.670000   17.200000    9.820000
  O     15.770000    7.660000   12.310000
  H     15.370000    8.080000   13.080000
  H     15.440000    8.060000   11.510000
  O     14.390000   11.740000    8.700000
  H     14.250000   11.210000    7.860000
  H     14.450000   12.690000    8.450000
  O     13.610000   11.590000   14.550000
  H     14.320000   12.280000   14.480000
  H     13.730000   10.980000   13.870000
  O      6.200000   14.850000    9.290000
  H      6.110000   15.760000    9.710000
  H      5.510000   14.210000    9.430000
  O      9.290000   15.990000   11.730000
  H      9.240000   15.880000   10.720000
  H     10.160000   16.380000   11.930000
  O     17.680000   13.080000    8.760000
  H     16.930000   12.520000    9.010000
  H     18.480000   12.540000    8.600000
  O      8.580000    8.780000   13.630000
  H      7.980000    8.900000   12.860000
  H      9.170000    9.610000   13.710000
  O     10.070000   10.100000    4.980000
  H     10.620000   10.250000    5.780000
  H     10.630000    9.630000    4.360000
  O      6.370000   12.910000    4.610000
  H      7.170000   12.470000    4.320000
  H      5.620000   12.380000    4.310000
  O      6.980000    9.480000    5.260000
  H      7.620000   10.230000    5.270000
  H      6.710000    9.600000    6.140000
  O     13.880000   14.280000   11.410000
  H     13.260000   14.850000   10.920000
  H     14.770000   14.570000   11.160000
  O     12.410000    6.270000   12.630000
  H     12.770000    6.120000   11.720000
  H     13.090000    5.990000   13.260000
  O      7.500000    7.720000    9.490000
  H      8.030000    6.990000    9.860000
  H      6.880000    7.260000    8.930000
  O      9.800000   14.220000    6.440000
  H      8.970000   13.770000    6.640000
  H      9.890000   14.320000    5.490000
  O     17.870000   10.930000   11.620000
  H     17.320000   11.280000   12.340000
  H     18.400000   11.710000   11.490000
  O      4.670000    9.260000    8.540000
  H      3.810000    9.670000    8.650000
  H      5.290000    9.920000    8.870000
  O     10.560000   10.140000   14.660000
  H     11.190000   10.030000   13.910000
  H     10.830000   11.000000   15.020000
  O      9.720000    6.270000   13.440000
  H      9.540000    7.170000   13.770000
  H     10.620000    6.380000   13.000000
  Q     19.110000   13.140000    5.350000
  Q     20.110000   13.860000    4.400000
  Q     19.890000   13.390000    5.090000
  Q     18.220000   15.280000   17.100000
  Q     18.670000   15.750000   15.710000
  Q     18.630000   15.800000   16.550000
  Q     12.710000   20.230000    8.930000
  Q     11.470000   20.820000    8.120000
  Q     12.280000   20.790000    8.420000
  Q      9.000000    5.780000   11.900000
  Q      9.810000    5.590000   10.630000
  Q      9.110000    5.520000   11.110000
  Q     20.650000   12.400000   12.350000
  Q     20.040000   13.700000   11.800000
  Q     20.050000   12.930000   12.170000
  Q     12.210000    2.950000    9.110000
  Q     13.630000    3.630000    9.010000
  Q     12.900000    3.390000    9.360000
  Q     15.510000    8.630000   15.040000
  Q     14.220000    7.750000   14.970000
  Q     14.720000    8.400000   14.720000
  Q     11.750000    7.880000   -0.520000
  Q     12.190000    8.450000    0.930000
  Q     11.760000    7.970000    0.340000
  Q     14.600000    2.760000    4.690000
  Q     13.120000    2.960000    5.070000
  Q     13.970000    3.210000    5.030000
  Q     19.030000    7.140000    3.320000
  Q     18.640000    7.770000    4.510000
  Q     18.990000    7.770000    3.780000
  Q      5.010000   14.440000   11.930000
  Q      3.920000   14.890000   12.990000
  Q      4.690000   14.680000   12.680000
  Q     10.550000    2.500000   13.240000
  Q     10.880000    3.850000   12.800000
  Q     11.080000    3.050000   12.910000
  Q      0.470000   15.600000    9.130000
  Q      1.980000   15.740000    8.870000
  Q      1.220000   15.940000    9.230000
  Q     10.880000    5.630000   14.890000
  Q     10.960000    5.330000   16.380000
  Q     11.270000    5.390000   15.590000
  Q     17.660000   20.120000   11.910000
  Q     17.100000   18.930000   12.760000
  Q     17.420000   19.690000   12.630000
  Q      6.390000   20.400000   18.080000
  Q      7.430000   19.770000   17.090000
  Q      6.670000   19.880000   17.500000
  Q      4.850000    7.450000   17.280000
  Q      3.990000    8.430000   16.280000
  Q      4.430000    7.680000   16.550000
  Q      9.640000   21.000000   13.860000
  Q     10.870000   20.550000   14.400000
  Q     10.110000   20.430000   14.150000
  Q     14.780000   13.340000   12.940000
  Q     16.140000   13.480000   13.670000
  Q     15.300000   13.500000   13.600000
  Q      6.190000   14.770000    1.420000
  Q      4.770000   14.350000    1.620000
  Q      5.390000   14.940000    1.490000
  Q     11.690000   16.820000   15.820000
  Q     12.980000   16.040000   15.500000
  Q     12.330000   16.590000   15.320000
  Q     14.130000   21.210000   12.100000
  Q     13.890000   20.690000   13.530000
  Q     14.210000   20.670000   12.760000
  Q      4.880000    7.730000   19.630000
  Q      6.010000    6.880000   19.070000
  Q      5.460000    7.530000   19.060000
  Q      1.090000   14.180000    5.560000
  Q     -0.230000   13.950000    6.320000
  Q      0.600000   14.090000    6.260000
  Q     16.220000    4.780000   10.670000
  Q     14.830000    4.240000   10.920000
  Q     15.390000    4.830000   10.670000
  Q     13.810000   11.490000    4.730000
  Q     14.750000   11.020000    3.660000
  Q     14.270000   11.580000    4.050000
  Q      5.730000    7.120000   11.590000
  Q      5.600000    6.740000   13.070000
  Q      5.360000    6.740000   12.250000
  Q     10.150000   11.710000   20.060000
  Q     10.790000   12.410000   18.910000
  Q     10.660000   11.770000   19.400000
  Q      5.770000   11.660000   17.300000
  Q      4.620000   11.610000   18.450000
  Q      5.320000   11.890000   18.030000
  Q     21.080000   15.680000   11.520000
  Q     19.670000   16.120000   11.370000
  Q     20.270000   15.560000   11.420000
  Q     17.590000    7.820000   12.100000
  Q     18.720000    8.670000   11.480000
  Q     18.330000    7.960000   11.690000
  Q     14.870000    6.480000    3.390000
  Q     15.430000    7.090000    4.550000
  Q     14.910000    7.050000    3.970000
  Q      8.810000    8.620000   20.300000
  Q      8.810000    8.850000   18.770000
  Q      9.040000    8.470000   19.480000
  Q     12.220000   21.790000   15.860000
  Q     13.100000   20.480000   15.790000
  Q     12.610000   21.100000   15.470000
  Q     12.640000   19.410000    5.190000
  Q     13.670000   20.680000    5.500000
  Q     13.190000   20.080000    5.010000
  Q     16.510000   15.720000    3.810000
  Q     16.950000   16.910000    2.800000
  Q     17.050000   16.250000    3.400000
  Q     18.560000   12.740000   13.920000
  Q     17.450000   12.180000   14.930000
  Q     17.820000   12.380000   14.140000
  Q      6.040000   16.650000    6.540000
  Q      7.050000   17.780000    6.790000
  Q      6.360000   17.330000    6.960000
  Q      8.320000   14.980000   19.270000
  Q      7.010000   14.580000   18.540000
  Q      7.840000   14.650000   18.640000
  Q      2.360000    8.440000   11.640000
  Q      3.600000    8.110000   12.600000
  Q      2.920000    8.570000   12.290000
  Q     14.230000    5.040000   18.890000
  Q     14.370000    3.500000   18.950000
  Q     14.370000    4.250000   18.540000
  Q      2.820000   19.850000   10.940000
  Q      4.200000   19.110000   10.490000
  Q      3.640000   19.570000   11.010000
  Q     11.010000    6.370000    8.880000
  Q     11.950000    5.220000    9.510000
  Q     11.430000    5.910000    9.520000
  Q     10.370000    6.010000    6.670000
  Q      9.360000    7.020000    7.140000
  Q     10.100000    6.640000    7.170000
  Q     20.340000   14.170000    8.210000
  Q     20.000000   15.180000    9.360000
  Q     20.340000   14.920000    8.630000
  Q     20.300000    9.910000   14.110000
  Q     19.010000   10.660000   14.330000
  Q     19.490000    9.990000   14.200000
  Q      4.980000   18.130000    3.160000
  Q      4.920000   16.660000    2.460000
  Q      4.670000   17.330000    2.980000
  Q      3.800000   12.080000    2.550000
  Q      3.310000   12.770000    1.270000
  Q      3.730000   12.720000    2.000000
  Q     12.160000   17.380000    5.820000
  Q     10.760000   17.950000    6.450000
  Q     11.570000   17.980000    6.100000
  Q      1.610000    8.670000    9.200000
  Q      1.500000    9.220000    7.800000
  Q      1.670000    9.280000    8.640000
  Q      9.090000   17.990000    5.230000
  Q      9.160000   19.300000    6.090000
  Q      8.880000   18.510000    5.880000
  Q      9.600000    2.800000    8.280000
  Q     10.440000    1.910000    7.480000
  Q     10.270000    2.330000    8.180000
  Q      3.110000   10.310000   17.100000
  Q      3.670000   10.690000   15.730000
  Q      3.280000   10.190000   16.260000
  Q     13.740000   17.920000   14.640000
  Q     14.720000   18.960000   13.910000
  Q     14.500000   18.310000   14.450000
  Q      1.040000   11.520000   14.170000
  Q      1.070000   10.740000   15.400000
  Q      0.870000   11.400000   14.950000
  Q     17.630000    3.310000   11.520000
  Q     18.540000    4.450000   10.930000
  Q     17.820000    4.110000   11.250000
  Q     10.060000   10.280000   17.830000
  Q      9.960000    9.670000   16.330000
  Q      9.730000    9.800000   17.160000
  Q      8.830000   17.440000    2.610000
  Q      8.080000   16.620000    3.790000
  Q      8.700000   17.100000    3.400000
  Q     10.830000    5.650000    2.840000
  Q     10.070000    5.550000    4.180000
  Q     10.290000    5.900000    3.450000
  Q     13.220000   19.290000   11.370000
  Q     11.870000   19.570000   10.720000
  Q     12.650000   19.250000   10.720000
  Q      5.390000   20.260000    3.100000
  Q      6.820000   19.560000    3.270000
  Q      6.000000   19.720000    3.420000
  Q     11.850000   13.450000    1.120000
  Q     10.350000   13.010000    1.130000
  Q     11.010000   13.540000    1.110000
  Q      1.270000    8.850000   13.760000
  Q     -0.220000    8.240000   13.530000
  Q      0.410000    8.810000   13.840000
  Q      9.850000   20.840000   11.000000
  Q      9.920000   19.770000   12.110000
  Q      9.970000   20.060000   11.310000
  Q     16.620000   11.420000   19.670000
  Q     15.440000   12.460000   19.100000
  Q     15.970000   12.010000   19.700000
  Q      2.020000   13.100000    7.770000
  Q      1.950000   11.840000    8.560000
  Q      2.340000   12.470000    8.180000
  Q     14.060000    7.980000   17.740000
  Q     14.640000    9.310000   18.080000
  Q     14.490000    8.530000   18.240000
  Q      9.410000   19.000000   17.070000
  Q      9.470000   19.910000   15.910000
  Q      9.330000   19.740000   16.690000
  Q      2.630000   17.280000   16.760000
  Q      3.270000   18.360000   15.870000
  Q      2.730000   17.720000   16.050000
  Q     11.210000    4.680000   19.870000
  Q     12.610000    4.960000   20.690000
  Q     11.840000    4.560000   20.460000
  Q      8.700000   21.580000    7.940000
  Q      9.220000   20.150000    8.080000
  Q      9.300000   20.940000    7.850000
  Q      7.000000    8.820000   10.790000
  Q      5.990000    9.660000   11.660000
  Q      6.630000    9.100000   11.500000
  Q     15.110000   15.040000    7.450000
  Q     13.940000   15.140000    8.500000
  Q     14.430000   14.800000    7.880000
  Q      6.070000   16.260000   12.340000
  Q      7.520000   16.410000   11.720000
  Q      6.680000   16.550000   11.810000
  Q     11.730000   16.530000   13.420000
  Q     12.470000   16.730000   12.070000
  Q     11.860000   16.870000   12.640000
  Q     16.970000   13.570000   17.550000
  Q     16.800000   14.530000   18.770000
  Q     16.780000   14.300000   17.970000
  Q     14.820000   14.610000   15.030000
  Q     14.990000   15.130000   16.450000
  Q     14.540000   14.840000   15.780000
  Q     17.310000   10.640000    3.400000
  Q     17.620000   11.860000    4.310000
  Q     17.730000   11.330000    3.630000
  Q      2.980000   15.920000   18.770000
  Q      3.970000   15.870000   17.680000
  Q      3.490000   16.270000   18.200000
  Q     20.950000   12.680000   15.130000
  Q     20.000000   13.970000   15.490000
  Q     20.240000   13.110000   15.470000
  Q     11.940000    1.620000   17.110000
  Q     10.470000    1.440000   16.780000
  Q     11.230000    1.160000   17.010000
  Q     18.170000   15.630000   13.660000
  Q     19.590000   15.320000   13.230000
  Q     18.980000   15.400000   13.790000
  Q     13.360000   13.760000   17.900000
  Q     12.780000   13.470000   19.350000
  Q     13.280000   13.350000   18.650000
  Q      5.640000   16.300000    4.180000
  Q      6.470000   15.000000    4.140000
  Q      6.340000   15.820000    4.330000
  Q      9.650000    5.900000   18.390000
  Q     11.140000    6.290000   18.520000
  Q     10.470000    5.840000   18.230000
  Q      5.120000   19.670000    5.340000
  Q      4.400000   18.830000    6.460000
  Q      4.650000   19.540000    6.040000
  Q     12.500000    8.250000    3.770000
  Q     11.230000    7.760000    3.350000
  Q     11.810000    8.340000    3.390000
  Q      3.440000    7.030000    3.780000
  Q      4.220000    7.090000    5.000000
  Q      3.960000    6.710000    4.310000
  Q     20.060000    7.030000   12.550000
  Q     21.290000    6.210000   13.150000
  Q     20.900000    6.860000   12.740000
  Q      8.450000    2.160000   10.860000
  Q      8.200000    3.730000   10.620000
  Q      8.040000    2.880000   10.590000
  Q     13.330000    3.270000   17.050000
  Q     12.410000    3.390000   15.690000
  Q     12.950000    3.040000   16.250000
  Q      1.280000   16.040000   11.070000
  Q      1.010000   16.510000   12.510000
  Q      1.080000   15.920000   11.890000
  Q     12.550000   11.550000   20.330000
  Q     14.060000   11.580000   20.540000
  Q     13.280000   11.340000   20.730000
  Q     13.950000   11.430000   17.810000
  Q     13.910000   11.200000   16.300000
  Q     14.260000   11.200000   17.080000
  Q      2.540000   14.020000    3.000000
  Q      1.350000   13.180000    3.530000
  Q      1.820000   13.860000    3.470000
  Q      1.530000   11.240000    5.300000
  Q      2.540000   11.400000    6.430000
  Q      2.250000   11.080000    5.720000
  Q      4.600000   11.620000   12.910000
  Q      4.160000   10.450000   12.110000
  Q      4.590000   11.140000   12.260000
  Q     11.550000    0.990000    5.060000
  Q     12.330000    1.360000    6.210000
  Q     11.700000    1.470000    5.700000
  Q      4.400000   12.390000   10.620000
  Q      3.690000   12.870000    9.320000
  Q      4.160000   12.940000   10.030000
  Q     17.200000    6.130000    6.120000
  Q     17.030000    7.750000    6.070000
  Q     17.190000    6.940000    5.790000
  Q     17.130000   16.450000    6.770000
  Q     16.010000   17.200000    6.070000
  Q     16.340000   16.550000    6.530000
  Q      8.270000    1.270000   14.120000
  Q      9.060000    2.320000   14.820000
  Q      8.940000    1.720000   14.230000
  Q     14.060000    4.330000    3.700000
  Q     13.220000    4.950000    2.500000
  Q     13.930000    4.710000    2.920000
  Q      8.230000    6.910000   19.330000
  Q      7.800000    5.560000   20.020000
  Q      7.870000    6.130000   19.420000
  Q     15.450000    8.880000    3.410000
  Q     15.590000    9.510000    2.060000
  Q     15.730000    9.460000    2.870000
  Q      7.790000   10.890000   16.170000
  Q      7.100000   10.360000   14.910000
  Q      7.140000   10.770000   15.640000
  Q     10.810000   14.430000   18.590000
  Q      9.530000   14.070000   17.780000
  Q     10.360000   14.090000   17.950000
  Q     19.790000    8.000000   17.230000
  Q     19.030000    6.950000   18.060000
  Q     19.130000    7.690000   17.670000
  Q     15.990000   11.820000   16.840000
  Q     17.330000   11.480000   17.460000
  Q     16.820000   11.850000   16.910000
  Q      6.560000    3.810000   14.880000
  Q      7.290000    5.210000   14.630000
  Q      7.130000    4.350000   14.570000
  Q      4.840000   21.050000   11.170000
  Q      6.010000   21.510000   10.220000
  Q      5.500000   21.530000   10.890000
  Q     18.000000    4.530000   13.180000
  Q     17.520000    4.830000   14.690000
  Q     17.750000    4.360000   13.990000
  Q      5.710000    7.260000   15.340000
  Q      6.880000    7.970000   14.570000
  Q      6.290000    7.370000   14.700000
  Q     20.050000   11.380000    9.740000
  Q     20.020000   10.650000    8.400000
  Q     19.910000   11.310000    8.910000
  Q      2.890000   16.230000   14.710000
  Q      1.980000   15.030000   14.780000
  Q      2.570000   15.530000   14.440000
  Q     14.640000    2.790000   15.150000
  Q     16.070000    2.900000   14.450000
  Q     15.430000    2.540000   14.890000
  Q      6.080000    2.550000   12.820000
  Q      5.270000    1.460000   12.110000
  Q      5.420000    2.020000   12.720000
  Q     12.620000    0.290000   10.330000
  Q     13.450000    1.350000   11.210000
  Q     13.260000    0.580000   10.860000
  Q      2.360000   13.790000   16.290000
  Q      1.230000   12.870000   15.860000
  Q      1.560000   13.590000   16.180000
  Q     12.460000    8.740000   19.390000
  Q     10.950000    8.190000   19.540000
  Q     11.830000    8.170000   19.580000
  Q     12.990000   15.110000    6.250000
  Q     12.370000   15.350000    4.890000
  Q     12.790000   15.550000    5.570000
  Q      8.400000    8.960000    1.260000
  Q      9.930000    8.720000    0.710000
  Q      9.150000    9.080000    0.760000
  Q      4.690000    5.190000   11.810000
  Q      4.670000    3.550000   11.760000
  Q      4.360000    4.360000   11.750000
  Q     18.080000    4.950000    7.590000
  Q     17.970000    4.030000    6.380000
  Q     17.660000    4.540000    6.970000
  Q     14.030000   12.430000    2.190000
  Q     13.650000   11.840000    0.770000
  Q     13.740000   12.450000    1.390000
  Q      6.560000   10.710000   19.640000
  Q      6.650000    9.230000   19.430000
  Q      6.750000    9.920000   19.870000
  Q     15.750000   17.140000    8.410000
  Q     15.720000   18.280000    9.470000
  Q     15.900000   17.490000    9.170000
  Q     15.910000   20.520000    8.480000
  Q     15.130000   21.040000    9.570000
  Q     15.450000   20.450000    9.140000
  Q      9.020000    3.270000   17.540000
  Q      8.660000    4.070000   16.370000
  Q      9.010000    3.420000   16.750000
  Q      9.700000   17.160000   17.780000
  Q      9.520000   16.510000   16.370000
  Q      9.860000   17.030000   16.930000
  Q      5.400000    5.140000    7.810000
  Q      5.390000    3.880000    8.840000
  Q      5.600000    4.350000    8.120000
  Q     20.720000    8.510000    6.980000
  Q     19.740000    8.260000    8.090000
  Q     20.100000    8.760000    7.500000
  Q      3.720000    6.350000    7.180000
  Q      4.420000    7.640000    7.610000
  Q      4.380000    6.830000    7.350000
  Q      7.730000    7.880000    5.900000
  Q      6.910000    6.470000    6.200000
  Q      7.590000    7.070000    6.210000
  Q      8.830000   14.900000    2.470000
  Q      8.320000   13.400000    2.370000
  Q      8.320000   14.260000    2.220000
  Q     14.200000    5.770000   16.510000
  Q     12.810000    6.160000   16.230000
  Q     13.590000    6.330000   16.460000
  Q     17.630000    7.210000    8.330000
  Q     18.550000    7.030000    9.580000
  Q     18.340000    7.020000    8.730000
  Q     16.730000   13.680000    5.720000
  Q     17.430000   12.500000    6.590000
  Q     17.170000   12.930000    5.870000
  Q     15.320000    5.680000   14.520000
  Q     15.000000    5.790000   13.020000
  Q     14.860000    5.550000   13.820000
  Q     16.770000    2.590000   16.720000
  Q     18.330000    2.390000   17.170000
  Q     17.470000    2.420000   17.230000
  Q      4.610000   15.400000    7.870000
  Q      3.550000   16.300000    7.170000
  Q      3.820000   15.730000    7.710000
  Q      5.010000   14.460000   16.310000
  Q      4.670000   13.390000   17.460000
  Q      4.520000   14.020000   16.890000
  Q     11.000000   13.630000   16.160000
  Q     11.950000   12.960000   15.110000
  Q     11.190000   13.200000   15.440000
  Q      6.540000    8.960000    3.370000
  Q      6.010000    9.600000    2.130000
  Q      6.530000    9.110000    2.570000
  Q      2.770000   13.460000   11.710000
  Q      1.630000   13.960000   12.600000
  Q      2.170000   13.400000   12.290000
  Q      8.080000    2.720000    6.760000
  Q      7.440000    3.860000    7.630000
  Q      7.990000    3.520000    7.070000
  Q     11.230000   14.180000   21.180000
  Q     12.210000   15.250000   20.640000
  Q     11.710000   14.570000   20.600000
  Q      5.360000   19.400000   16.130000
  Q      5.100000   19.370000   14.660000
  Q      4.900000   19.510000   15.440000
  Q      9.530000    4.080000    6.090000
  Q     10.750000    3.450000    5.780000
  Q     10.290000    4.100000    5.800000
  Q      6.170000    0.610000   13.890000
  Q      6.690000   -0.720000   14.180000
  Q      6.670000    0.080000   14.270000
  Q      1.930000   17.310000    5.350000
  Q      3.270000   17.350000    4.500000
  Q      2.780000   17.210000    5.210000
  Q     14.180000   17.510000    3.110000
  Q     12.920000   17.520000    2.220000
  Q     13.600000   17.150000    2.640000
  Q     20.490000    5.790000   10.630000
  Q     20.530000    4.330000   11.160000
  Q     20.240000    4.980000   10.680000
  Q     14.420000    3.540000    7.020000
  Q     15.660000    4.050000    7.870000
  Q     15.040000    3.530000    7.640000
  Q      8.250000   10.950000    2.590000
  Q      9.290000   11.040000    3.660000
  Q      8.640000   11.350000    3.200000
  Q     15.700000    2.020000    8.900000
  Q     16.080000    1.450000   10.200000
  Q     16.110000    1.490000    9.380000
  Q     16.670000   16.030000   12.320000
  Q     16.070000   16.900000   13.450000
  Q     16.670000   16.600000   12.960000
  Q      6.190000   14.860000   14.130000
  Q      7.390000   15.090000   14.960000
  Q      6.600000   15.010000   14.840000
  Q     14.880000   13.450000    4.340000
  Q     14.480000   14.880000    4.410000
  Q     14.990000   14.280000    4.230000
  Q     11.790000    7.720000    6.470000
  Q     13.270000    7.630000    6.540000
  Q     12.540000    7.950000    6.290000
  Q      9.520000   14.450000   14.620000
  Q      9.280000   15.500000   13.520000
  Q      9.310000   15.220000   14.330000
  Q      6.150000   18.310000   12.930000
  Q      5.100000   19.300000   12.480000
  Q      5.700000   19.020000   12.980000
  Q     10.500000   15.910000    3.320000
  Q     10.870000   14.580000    2.680000
  Q     10.700000   15.110000    3.320000
  Q     18.090000    9.250000   18.860000
  Q     18.740000   10.620000   18.900000
  Q     18.120000   10.080000   19.040000
  Q      5.710000   17.830000    8.790000
  Q      5.680000   17.580000   10.430000
  Q      5.540000   17.980000    9.650000
  Q     14.330000    3.680000   13.260000
  Q     13.150000    3.070000   12.770000
  Q     13.930000    3.310000   12.710000
  Q      3.580000   12.790000   14.130000
  Q      4.740000   12.690000   15.040000
  Q      4.160000   12.380000   14.530000
  Q     15.230000   17.260000   16.230000
  Q     16.640000   16.990000   16.440000
  Q     15.840000   16.960000   16.670000
  Q     17.830000    9.110000   15.050000
  Q     17.570000    8.720000   16.440000
  Q     17.360000    8.840000   15.630000
  Q     15.990000    7.740000   19.360000
  Q     16.930000    6.430000   19.750000
  Q     16.560000    7.250000   19.790000
  Q      3.810000   10.990000    4.750000
  Q      5.270000   10.430000    4.830000
  Q      4.610000   10.880000    4.480000
  Q      0.530000   10.410000   12.410000
  Q      1.180000   11.740000   12.040000
  Q      0.550000   11.220000   12.180000
  Q     15.790000    1.830000   12.320000
  Q     17.080000    1.100000   12.650000
  Q     16.530000    1.540000   12.160000
  Q     10.800000    1.530000   11.190000
  Q     10.320000    1.080000    9.810000
  Q     10.350000    1.070000   10.660000
  Q     16.840000    6.800000   15.650000
  Q     17.140000    5.860000   16.840000
  Q     16.800000    6.050000   16.080000
  Q     14.850000    6.250000   20.990000
  Q     13.650000    6.980000   20.350000
  Q     14.060000    6.310000   20.690000
  Q     16.470000   15.830000   10.170000
  Q     17.220000   14.450000   10.130000
  Q     16.690000   15.040000   10.420000

----------------------------
CARTESIAN COORDINATES (A.U.)
----------------------------
  NO LB      ZA    FRAG     MASS         X           Y           Z
   0 C     6.0000    0    12.011   17.857912   23.848344   20.824782
   1 H     1.0000    0     1.008   18.991748   25.511303   21.164933
   2 H     1.0000    0     1.008   16.100467   24.264084   21.637364
   3 C     6.0000    0    12.011   19.331898   21.694056   21.920823
   4 H     1.0000    0     1.008   19.464179   22.090899   23.886138
   5 H     1.0000    0     1.008   18.368138   19.898816   21.731851
   6 C     6.0000    0    12.011   22.090899   21.335008   21.108241
   7 H     1.0000    0     1.008   23.224734   22.449946   22.525536
   8 H     1.0000    0     1.008   22.487741   22.317666   19.256309
   9 C     6.0000    0    12.011   23.073556   18.651597   21.127138
  10 H     1.0000    0     1.008   25.114460   18.576008   20.824782
  11 H     1.0000    0     1.008   22.109796   17.536659   19.766535
  12 O     8.0000    0    15.999   22.601125   17.593350   23.697166
  13 H     1.0000    0     1.008   23.054659   15.684727   23.621577
  14 O     8.0000    0    15.999   17.574453   23.527090   18.065782
  15 H     1.0000    0     1.008   16.667385   24.944385   17.328789
  16 O     8.0000    0    15.999   13.908384   25.265638   13.813898
  17 H     1.0000    0     1.008   12.963521   26.380577   15.023323
  18 H     1.0000    0     1.008   13.076905   25.152255   12.169836
  19 O     8.0000    0    15.999   19.974405   21.939720   14.002871
  20 H     1.0000    0     1.008   19.445282   22.053104   15.741419
  21 H     1.0000    0     1.008   20.087789   23.659371   13.284775
  22 O     8.0000    0    15.999   17.895706   29.952159   16.610693
  23 H     1.0000    0     1.008   17.933501   29.441933   14.872145
  24 H     1.0000    0     1.008   16.894152   31.501735   16.648487
  25 O     8.0000    0    15.999   30.575769   18.897261   18.027987
  26 H     1.0000    0     1.008   29.385241   20.201172   17.895706
  27 H     1.0000    0     1.008   31.634015   19.331898   19.426385
  28 O     8.0000    0    15.999   13.246980   19.861022   15.268987
  29 H     1.0000    0     1.008   14.588686   18.708289   15.609138
  30 H     1.0000    0     1.008   14.191843   21.372803   15.420165
  31 O     8.0000    0    15.999   33.032413   18.349241   13.001316
  32 H     1.0000    0     1.008   32.276522   18.783878   14.475302
  33 H     1.0000    0     1.008   34.789858   18.103576   13.341467
  34 O     8.0000    0    15.999   29.630906   14.078460   16.232747
  35 H     1.0000    0     1.008   29.895467   15.665830   17.007535
  36 H     1.0000    0     1.008   29.347447   12.963521   17.744528
  37 O     8.0000    0    15.999   16.043775   34.676475   17.347686
  38 H     1.0000    0     1.008   16.667385   35.659132   18.727186
  39 H     1.0000    0     1.008   14.229638   34.959933   17.650042
  40 O     8.0000    0    15.999   24.868796   20.371248   12.094247
  41 H     1.0000    0     1.008   23.357015   21.146035   12.585576
  42 H     1.0000    0     1.008   24.490851   18.651597   11.886377
  43 O     8.0000    0    15.999   23.470399   30.708050   18.424830
  44 H     1.0000    0     1.008   21.675159   30.613563   18.141371
  45 H     1.0000    0     1.008   23.942830   32.503290   18.557111
  46 O     8.0000    0    15.999   29.800981   14.475302   23.262529
  47 H     1.0000    0     1.008   29.045091   15.268987   24.717618
  48 H     1.0000    0     1.008   29.177372   15.231193   21.750748
  49 O     8.0000    0    15.999   27.193159   22.185385   16.440617
  50 H     1.0000    0     1.008   26.928597   21.183830   14.853247
  51 H     1.0000    0     1.008   27.306543   23.980625   15.968186
  52 O     8.0000    0    15.999   25.719173   21.901926   27.495515
  53 H     1.0000    0     1.008   27.060878   23.205837   27.363234
  54 H     1.0000    0     1.008   25.945940   20.749193   26.210501
  55 O     8.0000    0    15.999   11.716302   28.062433   17.555556
  56 H     1.0000    0     1.008   11.546227   29.782084   18.349241
  57 H     1.0000    0     1.008   10.412391   26.853008   17.820117
  58 O     8.0000    0    15.999   17.555556   30.216721   22.166488
  59 H     1.0000    0     1.008   17.461069   30.008851   20.257864
  60 H     1.0000    0     1.008   19.199618   30.953714   22.544433
  61 O     8.0000    0    15.999   33.410358   24.717618   16.554001
  62 H     1.0000    0     1.008   31.993063   23.659371   17.026432
  63 H     1.0000    0     1.008   34.922139   23.697166   16.251645
  64 O     8.0000    0    15.999   16.213850   16.591795   25.756967
  65 H     1.0000    0     1.008   15.080015   16.818563   24.301878
  66 H     1.0000    0     1.008   17.328789   18.160268   25.908145
  67 O     8.0000    0    15.999   19.029542   19.086234    9.410836
  68 H     1.0000    0     1.008   20.068892   19.369693   10.922617
  69 H     1.0000    0     1.008   20.087789   18.198063    8.239206
  70 O     8.0000    0    15.999   12.037555   24.396364    8.711637
  71 H     1.0000    0     1.008   13.549336   23.564885    8.163617
  72 H     1.0000    0     1.008   10.620261   23.394810    8.144720
  73 O     8.0000    0    15.999   13.190288   17.914604    9.939959
  74 H     1.0000    0     1.008   14.399713   19.331898    9.958857
  75 H     1.0000    0     1.008   12.680062   18.141371   11.602918
  76 O     8.0000    0    15.999   26.229399   26.985289   21.561775
  77 H     1.0000    0     1.008   25.057769   28.062433   20.635809
  78 H     1.0000    0     1.008   27.911255   27.533310   21.089344
  79 O     8.0000    0    15.999   23.451501   11.848583   23.867241
  80 H     1.0000    0     1.008   24.131803   11.565124   22.147590
  81 H     1.0000    0     1.008   24.736515   11.319460   25.057769
  82 O     8.0000    0    15.999   14.172946   14.588686   17.933501
  83 H     1.0000    0     1.008   15.174501   13.209186   18.632700
  84 H     1.0000    0     1.008   13.001316   13.719412   16.875254
  85 O     8.0000    0    15.999   18.519316   26.871906   12.169836
  86 H     1.0000    0     1.008   16.950843   26.021529   12.547782
  87 H     1.0000    0     1.008   18.689391   27.060878   10.374596
  88 O     8.0000    0    15.999   33.769406   20.654707   21.958618
  89 H     1.0000    0     1.008   32.730057   21.316111   23.319220
  90 H     1.0000    0     1.008   34.770961   22.128693   21.712953
  91 O     8.0000    0    15.999    8.825021   17.498864   16.138261
  92 H     1.0000    0     1.008    7.199857   18.273652   16.346131
  93 H     1.0000    0     1.008    9.996651   18.746083   16.761871
  94 O     8.0000    0    15.999   19.955508   19.161823   27.703385
  95 H     1.0000    0     1.008   21.146035   18.953953   26.286091
  96 H     1.0000    0     1.008   20.465734   20.786987   28.383687
  97 O     8.0000    0    15.999   18.368138   11.848583   25.397919
  98 H     1.0000    0     1.008   18.027987   13.549336   26.021529
  99 H     1.0000    0     1.008   20.068892   12.056453   24.566440
 100 Q     0.6645    0     0.000   36.112666   24.831001   10.110035
 101 Q     0.6645    0     0.000   38.002393   26.191604    8.314795
 102 Q    -1.3290    0     0.000   37.586653   25.303433    9.618706
 103 Q     0.6645    0     0.000   34.430810   28.875015   32.314317
 104 Q     0.6645    0     0.000   35.281187   29.763187   29.687598
 105 Q    -1.3290    0     0.000   35.205598   29.857673   31.274968
 106 Q     0.6645    0     0.000   24.018419   38.229160   16.875254
 107 Q     0.6645    0     0.000   21.675159   39.344098   15.344576
 108 Q    -1.3290    0     0.000   23.205837   39.287406   15.911494
 109 Q     0.6645    0     0.000   17.007535   10.922617   22.487741
 110 Q     0.6645    0     0.000   18.538213   10.563569   20.087789
 111 Q    -1.3290    0     0.000   17.215405   10.431288   20.994857
 112 Q     0.6645    0     0.000   39.022845   23.432604   23.338118
 113 Q     0.6645    0     0.000   37.870112   25.889248   22.298768
 114 Q    -1.3290    0     0.000   37.889009   24.434159   22.997967
 115 Q     0.6645    0     0.000   23.073556    5.574692   17.215405
 116 Q     0.6645    0     0.000   25.756967    6.859706   17.026432
 117 Q    -1.3290    0     0.000   24.377467    6.406172   17.687837
 118 Q     0.6645    0     0.000   29.309652   16.308337   28.421481
 119 Q     0.6645    0     0.000   26.871906   14.645378   28.289200
 120 Q    -1.3290    0     0.000   27.816769   15.873700   27.816769
 121 Q     0.6645    0     0.000   22.204282   14.891042   -0.982658
 122 Q     0.6645    0     0.000   23.035762   15.968186    1.757445
 123 Q    -1.3290    0     0.000   22.223179   15.061117    0.642507
 124 Q     0.6645    0     0.000   27.590002    5.215644    8.862816
 125 Q     0.6645    0     0.000   24.793207    5.593589    9.580911
 126 Q    -1.3290    0     0.000   26.399474    6.066021    9.505322
 127 Q     0.6645    0     0.000   35.961488   13.492645    6.273891
 128 Q     0.6645    0     0.000   35.224495   14.683172    8.522665
 129 Q    -1.3290    0     0.000   35.885899   14.683172    7.143165
 130 Q     0.6645    0     0.000    9.467528   27.287645   22.544433
 131 Q     0.6645    0     0.000    7.407726   28.138022   24.547542
 132 Q    -1.3290    0     0.000    8.862816   27.741180   23.961727
 133 Q     0.6645    0     0.000   19.936611    4.724315   25.019974
 134 Q     0.6645    0     0.000   20.560220    7.275446   24.188495
 135 Q    -1.3290    0     0.000   20.938166    5.763665   24.396364
 136 Q     0.6645    0     0.000    0.888171   29.479728   17.253200
 137 Q     0.6645    0     0.000    3.741658   29.744289   16.761871
 138 Q    -1.3290    0     0.000    2.305466   30.122235   17.442172
 139 Q     0.6645    0     0.000   20.560220   10.639158   28.138022
 140 Q     0.6645    0     0.000   20.711398   10.072240   30.953714
 141 Q    -1.3290    0     0.000   21.297214   10.185624   29.460830
 142 Q     0.6645    0     0.000   33.372564   38.021290   22.506638
 143 Q     0.6645    0     0.000   32.314317   35.772516   24.112905
 144 Q    -1.3290    0     0.000   32.919029   37.208708   23.867241
 145 Q     0.6645    0     0.000   12.075350   38.550413   34.166249
 146 Q     0.6645    0     0.000   14.040665   37.359886   32.295420
 147 Q    -1.3290    0     0.000   12.604473   37.567756   33.070207
 148 Q     0.6645    0     0.000    9.165172   14.078460   32.654468
 149 Q     0.6645    0     0.000    7.540007   15.930391   30.764741
 150 Q    -1.3290    0     0.000    8.371487   14.513097   31.274968
 151 Q     0.6645    0     0.000   18.216960   39.684249   26.191604
 152 Q     0.6645    0     0.000   20.541323   38.833872   27.212056
 153 Q    -1.3290    0     0.000   19.105131   38.607105   26.739625
 154 Q     0.6645    0     0.000   27.930152   25.208947   24.453056
 155 Q     0.6645    0     0.000   30.500180   25.473508   25.832556
 156 Q    -1.3290    0     0.000   28.912810   25.511303   25.700275
 157 Q     0.6645    0     0.000   11.697405   27.911255    2.683411
 158 Q     0.6645    0     0.000    9.013994   27.117570    3.061356
 159 Q    -1.3290    0     0.000   10.185624   28.232508    2.815692
 160 Q     0.6645    0     0.000   22.090899   31.785194   29.895467
 161 Q     0.6645    0     0.000   24.528645   30.311207   29.290755
 162 Q    -1.3290    0     0.000   23.300323   31.350557   28.950604
 163 Q     0.6645    0     0.000   26.701830   40.081091   22.865686
 164 Q     0.6645    0     0.000   26.248296   39.098434   25.567995
 165 Q    -1.3290    0     0.000   26.853008   39.060639   24.112905
 166 Q     0.6645    0     0.000    9.221864   14.607583   37.095324
 167 Q     0.6645    0     0.000   11.357254   13.001316   36.037077
 168 Q    -1.3290    0     0.000   10.317905   14.229638   36.018180
 169 Q     0.6645    0     0.000    2.059801   26.796317   10.506877
 170 Q     0.6645    0     0.000   -0.434637   26.361680   11.943069
 171 Q    -1.3290    0     0.000    1.133836   26.626241   11.829686
 172 Q     0.6645    0     0.000   30.651358    9.032891   20.163378
 173 Q     0.6645    0     0.000   28.024639    8.012439   20.635809
 174 Q    -1.3290    0     0.000   29.082885    9.127377   20.163378
 175 Q     0.6645    0     0.000   26.097118   21.712953    8.938405
 176 Q     0.6645    0     0.000   27.873460   20.824782    6.916398
 177 Q    -1.3290    0     0.000   26.966392   21.883029    7.653391
 178 Q     0.6645    0     0.000   10.828131   13.454850   21.901926
 179 Q     0.6645    0     0.000   10.582466   12.736754   24.698721
 180 Q    -1.3290    0     0.000   10.128932   12.736754   23.149145
 181 Q     0.6645    0     0.000   19.180720   22.128693   37.907906
 182 Q     0.6645    0     0.000   20.390145   23.451501   35.734721
 183 Q    -1.3290    0     0.000   20.144481   22.242077   36.660687
 184 Q     0.6645    0     0.000   10.903720   22.034207   32.692262
 185 Q     0.6645    0     0.000    8.730535   21.939720   34.865447
 186 Q    -1.3290    0     0.000   10.053343   22.468844   34.071762
 187 Q     0.6645    0     0.000   39.835427   29.630906   21.769645
 188 Q     0.6645    0     0.000   37.170913   30.462385   21.486186
 189 Q    -1.3290    0     0.000   38.304749   29.404139   21.580672
 190 Q     0.6645    0     0.000   33.240283   14.777658   22.865686
 191 Q     0.6645    0     0.000   35.375673   16.383926   21.694056
 192 Q    -1.3290    0     0.000   34.638680   15.042220   22.090899
 193 Q     0.6645    0     0.000   28.100228   12.245425    6.406172
 194 Q     0.6645    0     0.000   29.158474   13.398158    8.598254
 195 Q    -1.3290    0     0.000   28.175817   13.322569    7.502213
 196 Q     0.6645    0     0.000   16.648487   16.289439   38.361441
 197 Q     0.6645    0     0.000   16.648487   16.724076   35.470160
 198 Q    -1.3290    0     0.000   17.083124   16.005980   36.811865
 199 Q     0.6645    0     0.000   23.092453   41.177132   29.971056
 200 Q     0.6645    0     0.000   24.755412   38.701591   29.838776
 201 Q    -1.3290    0     0.000   23.829447   39.873221   29.234063
 202 Q     0.6645    0     0.000   23.886138   36.679584    9.807679
 203 Q     0.6645    0     0.000   25.832556   39.079536   10.393494
 204 Q    -1.3290    0     0.000   24.925488   37.945701    9.467528
 205 Q     0.6645    0     0.000   31.199378   29.706495    7.199857
 206 Q     0.6645    0     0.000   32.030858   31.955269    5.291233
[...]
 341   Q   :    0.222386680    0.164493167    0.045297784
 342   Q   :   -0.264177786    0.116026803   -0.076307539
 343   Q   :    0.039627970   -0.286918292    0.040217406
 344   Q   :   -0.252895619    0.062926906   -0.051555523
 345   Q   :    0.210046275   -0.024959901   -0.208250838
 346   Q   :    0.051420261   -0.045565926    0.256308546
 347   Q   :    0.013333514    0.141561482   -0.238356037
 348   Q   :   -0.161630814    0.039579952    0.204537732
 349   Q   :    0.144044742   -0.178888723    0.029510945
 350   Q   :   -0.220371038    0.134412703   -0.044103765
 351   Q   :    0.032770154   -0.262714025   -0.067977033
 352   Q   :    0.184771736    0.121504662    0.118154267
 353   Q   :   -0.281959505    0.030766903    0.064039924
 354   Q   :    0.203171927    0.144183005    0.099950674
 355   Q   :    0.076886056   -0.174685672   -0.163431823
 356   Q   :    0.155177778    0.030883420   -0.234914111
 357   Q   :   -0.076140589   -0.239714127    0.128978910
 358   Q   :   -0.085013964    0.208272351    0.113633805
 359   Q   :    0.278639663   -0.053181376    0.157578181
 360   Q   :   -0.194807640   -0.214991544   -0.004390937
 361   Q   :   -0.073971791    0.270273887   -0.159636263
 362   Q   :   -0.214712761    0.152311829   -0.197504337
 363   Q   :    0.075859435    0.161304557    0.245370683
 364   Q   :    0.137755221   -0.313205823   -0.052159116
 365   Q   :   -0.248132386    0.031395940   -0.049240739
 366   Q   :    0.116769036   -0.226306720    0.137902263
 367   Q   :    0.140055519    0.191124938   -0.083216379
 368   Q   :    0.126895369   -0.216373139    0.086540267
 369   Q   :    0.054030241    0.258452737    0.006337938
 370   Q   :   -0.189007455   -0.046531010   -0.095524747
 371   Q   :    0.089450129    0.059414783    0.206448034
 372   Q   :   -0.174317638    0.122559715   -0.181174140
 373   Q   :    0.077893936   -0.190945286   -0.032731835
 374   Q   :    0.069404102    0.056066621   -0.249558030
 375   Q   :   -0.022102502    0.210148615    0.191263251
 376   Q   :   -0.049706120   -0.256643542    0.070658292
 377   Q   :   -0.226876885    0.085948916   -0.140063470
 378   Q   :    0.257158796    0.096324606   -0.084180021
 379   Q   :   -0.030764692   -0.181255410    0.230382518
 380   Q   :   -0.117263302    0.080086086    0.262561265
 381   Q   :   -0.119222287    0.008418740   -0.228546411
 382   Q   :    0.226244037   -0.096789901   -0.029089842
 383   Q   :    0.210760662    0.035759033   -0.147772585
 384   Q   :   -0.170185496   -0.269638171    0.018458167
 385   Q   :   -0.041010687    0.240615892    0.125902064
 386   Q   :   -0.250139328    0.065449610   -0.138563787
 387   Q   :    0.089830595    0.116128106    0.243485932
 388   Q   :    0.147345493   -0.185749047   -0.105439745
 389   Q   :   -0.002593559    0.173617726    0.238107127
 390   Q   :   -0.150726535   -0.247142416   -0.051316052
 391   Q   :    0.160480340    0.075797326   -0.190031551
 392   Q   :   -0.037224834   -0.191349457   -0.240519905
 393   Q   :    0.241083132   -0.051438394    0.174690645
 394   Q   :   -0.204653677    0.234105293    0.060022428
 395   Q   :    0.076070565   -0.188390908    0.188950071
 396   Q   :   -0.134483818   -0.031439398   -0.214292240
 397   Q   :    0.059802669    0.218830657    0.025957264
 398   Q   :   -0.002134809   -0.231364959    0.101145537
 399   Q   :   -0.055306801    0.237817138    0.088707932
 400   Q   :    0.055769387   -0.006733995   -0.191785768
 401   Q   :    0.284859083   -0.017658444    0.086531622
 402   Q   :   -0.092527262    0.221002883   -0.140692369
 403   Q   :   -0.187835699   -0.198307390    0.042783170
 404   Q   :   -0.261274534   -0.152749339   -0.035480410
 405   Q   :    0.028845090    0.195781001    0.193489868
 406   Q   :    0.230662306   -0.045119376   -0.162156795
 407   Q   :    0.025908451   -0.108526859    0.218469841
 408   Q   :   -0.251511408    0.075714580   -0.128819465
 409   Q   :    0.221143223    0.032154812   -0.106588282
 410   Q   :    0.104228080    0.225413069   -0.019874004
 411   Q   :   -0.022329134   -0.200979307    0.228489686
 412   Q   :   -0.089841236   -0.043408485   -0.207306687
 413   Q   :   -0.105756052   -0.191060614    0.170320846
 414   Q   :   -0.070204397    0.006917220   -0.305936809
 415   Q   :    0.179693798    0.182017868    0.128282624
 416   Q   :    0.223649781    0.040827579    0.173649253
 417   Q   :   -0.001885766   -0.146331100   -0.256608274
 418   Q   :   -0.222190655    0.105342624    0.075159650
 419   Q   :    0.134503039    0.111999081    0.216099647
 420   Q   :   -0.263659338   -0.004236568   -0.048781368
 421   Q   :    0.131378130   -0.103100861   -0.173475179
 422   Q   :    0.228814072    0.091771600   -0.145362780
 423   Q   :   -0.022946574   -0.266259958    0.128708813
 424   Q   :   -0.200034305    0.166054487    0.017277487
 425   Q   :   -0.269432375   -0.002924722   -0.014592700
 426   Q   :    0.175048834   -0.126226614    0.200093368
 427   Q   :    0.106162249    0.126391524   -0.185857501
 428   Q   :   -0.206507591   -0.181630047    0.119489655
 429   Q   :    0.042952158    0.258879825    0.035173382
 430   Q   :    0.166406880   -0.080288106   -0.156678164
 431   Q   :   -0.200537328   -0.155252097    0.077284502
 432   Q   :    0.182534307   -0.019589854   -0.249851109
 433   Q   :    0.026660642    0.181918712    0.174782464
 434   Q   :    0.088240850    0.069137586   -0.245414959
 435   Q   :   -0.063862524    0.152124064    0.203060154
 436   Q   :   -0.011847901   -0.221307702    0.041684630
 437   Q   :   -0.152572281   -0.029878843    0.187731377
 438   Q   :    0.186947932    0.205756431   -0.031803891
 439   Q   :   -0.022059198   -0.171379214   -0.151141661
 440   Q   :    0.050673139    0.010735966    0.293794072
 441   Q   :    0.038441616   -0.225943864   -0.150896719
 442   Q   :   -0.078751770    0.211637476   -0.136356814
 443   Q   :    0.122279646    0.251462598    0.103313508
 444   Q   :   -0.192982977   -0.160741479    0.118760754
 445   Q   :    0.071742638   -0.090125641   -0.228430876
 446   Q   :   -0.232266715    0.100412752    0.066930924
 447   Q   :    0.201267708    0.129584581   -0.144850341
 448   Q   :    0.027647404   -0.235198738    0.070160813
 449   Q   :    0.218603318    0.162565341    0.017734833
 450   Q   :   -0.037927747   -0.194615506   -0.221095461
 451   Q   :   -0.190646084    0.032472153    0.207192505
 452   Q   :   -0.204878669   -0.074710799   -0.172789351
 453   Q   :    0.048101415    0.253806321    0.105029626
 454   Q   :    0.159077371   -0.182022027    0.064679777
 455   Q   :    0.290200850    0.058624415    0.028314520
 456   Q   :   -0.078588679   -0.221237711   -0.093891488
 457   Q   :   -0.216605398    0.170373499    0.078974156
 458   Q   :    0.186979499    0.185617654   -0.065563541
 459   Q   :   -0.249628076    0.011026771   -0.017332436
 460   Q   :    0.069249789   -0.191764538    0.086844581
 461   Q   :    0.057521167   -0.166780497    0.228037664
 462   Q   :   -0.151571318   -0.085485635   -0.238485369
 463   Q   :    0.093967983    0.243389086    0.013935249
 464   Q   :   -0.196210336   -0.034681485    0.141091437
 465   Q   :    0.244967897   -0.119088565   -0.005783284
 466   Q   :   -0.049596201    0.159557990   -0.139319282
 467   Q   :    0.097608635    0.210326006    0.004912199
 468   Q   :    0.113774996   -0.255269537   -0.010378418
 469   Q   :   -0.216993711    0.032262684   -0.006053092
 470   Q   :    0.149127560    0.125569936    0.189675143
 471   Q   :    0.126914133   -0.174213438   -0.207380398
 472   Q   :   -0.270891718    0.031135966    0.017000890
 473   Q   :    0.095278201   -0.023993881    0.253853695
 474   Q   :   -0.027803617   -0.207313796   -0.189445391
 475   Q   :   -0.057843096    0.229312202   -0.069867612
 476   Q   :   -0.069582626    0.264961009   -0.092383192
 477   Q   :   -0.034405233   -0.239390173   -0.175212172
 478   Q   :    0.108164829   -0.019968604    0.273021807
 479   Q   :   -0.057458901   -0.104557396   -0.250773447
 480   Q   :   -0.059607293    0.243898722    0.085359132
 481   Q   :    0.114117437   -0.132881138    0.167203793
 482   Q   :    0.184660430    0.048131929   -0.260087881
 483   Q   :   -0.120434077    0.261081240    0.169393995
 484   Q   :   -0.066445637   -0.301294130    0.091134828
 485   Q   :   -0.009372871   -0.043637454    0.325450081
 486   Q   :   -0.131520117    0.243128821   -0.113086492
 487   Q   :    0.140549438   -0.192956963   -0.203043215
 488   Q   :   -0.059882606    0.038059765    0.267278183
 489   Q   :   -0.127018018   -0.185862742   -0.176753856
 490   Q   :    0.183268541    0.144566227   -0.086629897
 491   Q   :   -0.061477064    0.240643273   -0.085808343
 492   Q   :   -0.068444020   -0.132943504    0.217625463
 493   Q   :    0.122317603   -0.115375527   -0.130671656
 494   Q   :    0.214370211   -0.102153159   -0.164407499
 495   Q   :   -0.093892963   -0.159900917    0.190583686
 496   Q   :   -0.098603131    0.256961861   -0.031065099
 497   Q   :   -0.249150907   -0.160380700   -0.058928345
 498   Q   :   -0.010089797    0.254003632    0.073484685
 499   Q   :    0.249399035   -0.091850989   -0.017985988
 500   Q   :    0.037110946    0.241793939   -0.085723322
 501   Q   :   -0.196202119   -0.158267775   -0.004402701
 502   Q   :    0.152226993   -0.091065277    0.089387822
 503   Q   :    0.169703667    0.207332625    0.086700685
 504   Q   :    0.005962389   -0.261470245    0.048751608
 505   Q   :   -0.174210132    0.060468085   -0.141960484
 506   Q   :    0.211740553   -0.206873621    0.008233348
 507   Q   :   -0.254316555   -0.062797751   -0.074812883
 508   Q   :    0.048631481    0.267307882    0.071167306
 509   Q   :   -0.239516585    0.069286272   -0.129200638
 510   Q   :    0.062853873    0.010091365    0.254972449
 511   Q   :    0.178391905   -0.084449692   -0.129901659
 512   Q   :   -0.128103221    0.225969176   -0.025707907
 513   Q   :    0.080127033   -0.122289844    0.224128483
 514   Q   :    0.037927548   -0.100238290   -0.185650377
 515   Q   :    0.160725613    0.055601197    0.226615143
 516   Q   :    0.045492871    0.085116460   -0.255041924
 517   Q   :   -0.201811278   -0.139027595    0.035768189
 518   Q   :   -0.194469869    0.060800893   -0.156852929
 519   Q   :    0.292620625   -0.001994101   -0.031053394
 520   Q   :   -0.094562540   -0.057503103    0.191820942
 521   Q   :    0.252408952   -0.096467976    0.035741644
 522   Q   :   -0.079687301    0.207393076   -0.192558617
 523   Q   :   -0.165345356   -0.111276772    0.155788949
 524   Q   :    0.149165294    0.120873700   -0.163227579
 525   Q   :    0.048311320   -0.185847905    0.172515373
 526   Q   :   -0.210279129    0.069990926   -0.008055820
 527   Q   :   -0.047158693    0.137375765    0.221236852
 528   Q   :    0.244407407   -0.071206990   -0.092461744
 529   Q   :   -0.192178220   -0.062692983   -0.135694397
 530   Q   :   -0.013103351   -0.043216725    0.303089155
 531   Q   :   -0.191216631    0.182712552   -0.143864792
 532   Q   :    0.195388767   -0.144316227   -0.159392816
 533   Q   :    0.212120017    0.028812324   -0.202162369
 534   Q   :   -0.175539252    0.186257716    0.106208419
 535   Q   :   -0.036809996   -0.210619704    0.102494484
 536   Q   :    0.034263085   -0.267191945   -0.094870905
 537   Q   :   -0.162362783    0.092859038    0.180922122
 538   Q   :    0.125702708    0.176402525   -0.081556297
 539   Q   :   -0.164385207   -0.122312906    0.202182038
 540   Q   :    0.164185027    0.234645454    0.023608601
 541   Q   :   -0.002891712   -0.106011036   -0.212202270
 542   Q   :    0.162845232   -0.054008924    0.223338895
 543   Q   :    0.081275771   -0.061674091   -0.271339431
 544   Q   :   -0.249223066    0.119390088    0.050442811
 545   Q   :   -0.265223224   -0.028623158    0.100664458
 546   Q   :    0.172517099   -0.275908364   -0.001548762
 547   Q   :    0.104712918    0.296867552   -0.104680222
 548   Q   :   -0.185824066    0.172568789   -0.151271846
 549   Q   :   -0.010067524   -0.323405873   -0.054583012
 550   Q   :    0.195042452    0.135159523    0.211375799
 551   Q   :   -0.277689369    0.037289820    0.032602477
 552   Q   :    0.133000807    0.049305990   -0.214343241
 553   Q   :    0.133797099   -0.083223458    0.181280956
 554   Q   :    0.211601094    0.153957145    0.173970675
 555   Q   :   -0.206543080    0.132129544   -0.122292551
 556   Q   :   -0.004046292   -0.288604956   -0.053473510
 557   Q   :    0.091714569    0.270725455   -0.007079726
 558   Q   :    0.100901978   -0.204838446    0.169466880
 559   Q   :   -0.180023879   -0.060170621   -0.170399412
 560   Q   :   -0.193683717    0.012138920   -0.176451668
 561   Q   :    0.199200028    0.187529656    0.078995864
 562   Q   :   -0.004416750   -0.195941483    0.098788454
 563   Q   :   -0.138453101   -0.151173479   -0.221666780
 564   Q   :    0.198077913   -0.107276378    0.125787190
 565   Q   :   -0.054126775    0.253264079    0.084523926
 566   Q   :   -0.159219341    0.201464277   -0.155826300
 567   Q   :   -0.028648525    0.006641262    0.297804501
 568   Q   :    0.184418089   -0.211012124   -0.141481847
 569   Q   :   -0.006956563   -0.184809842   -0.195558576
 570   Q   :   -0.219512117    0.096605710    0.166512137
 571   Q   :    0.222530571    0.095950437    0.030307989
 572   Q   :   -0.121466106   -0.052873418   -0.254446454
 573   Q   :    0.310730232    0.023926475    0.036947090
 574   Q   :   -0.181611787    0.032926900    0.219857156
 575   Q   :   -0.051560928   -0.261828311    0.054458435
 576   Q   :   -0.207879477    0.226738253    0.080130736
 577   Q   :    0.257451555    0.036815500   -0.137936936
 578   Q   :   -0.284826552   -0.098553991    0.077793081
 579   Q   :    0.248897415   -0.120610864    0.097777109
 580   Q   :    0.038346709    0.208835223   -0.178278547
 581   Q   :    0.058709388   -0.259565543    0.086730259
 582   Q   :   -0.005108570    0.075775730   -0.256185508
 583   Q   :   -0.048776081    0.188333833    0.167208544
 584   Q   :    0.143523425   -0.251314429   -0.025945645
 585   Q   :   -0.207302756    0.082443696   -0.185658961
 586   Q   :    0.073246179    0.170197702    0.204309148
 587   Q   :   -0.072364762    0.294417223   -0.018365712
 588   Q   :    0.046408520   -0.154505911   -0.204839480
 589   Q   :    0.032210914   -0.136172532    0.227225579
 590   Q   :    0.004438083   -0.264054223   -0.072984024
 591   Q   :    0.229589654    0.190084174   -0.066343297
 592   Q   :   -0.232873476    0.066832366    0.142369283
 593   Q   :    0.059138219   -0.049046379   -0.226172285
 594   Q   :    0.039297241   -0.121201914    0.211383570
 595   Q   :   -0.107034816    0.170519519    0.012147903
 596   Q   :    0.163319594    0.157903840    0.254759866
 597   Q   :   -0.273687907   -0.080672705    0.036164299
 598   Q   :    0.113893463   -0.083187204   -0.284799574
 599   Q   :   -0.207214234    0.162274955   -0.143389641
 600   Q   :    0.202398421    0.119898744    0.179656726
 601   Q   :    0.007291836   -0.275595997   -0.026651306
 602   Q   :   -0.228975346    0.115262972   -0.181120633
 603   Q   :    0.272816786    0.021047944   -0.106250769
 604   Q   :   -0.041801271   -0.132586764    0.292543368
 605   Q   :    0.196077086    0.109101843   -0.223657678
 606   Q   :    0.080464220   -0.036628283    0.263674491
 607   Q   :   -0.274411327   -0.058467854   -0.033876399
 608   Q   :   -0.168440326    0.138741797   -0.140799324
 609   Q   :    0.105126727   -0.243319482   -0.024174231
 610   Q   :    0.074359582    0.105409057    0.169260616
 611   Q   :   -0.247122156    0.034290312    0.084057828
 612   Q   :    0.186676734   -0.132816177    0.114993495
 613   Q   :    0.061005248    0.088204417   -0.201563193
 614   Q   :    0.018949137   -0.283230789    0.071340317
 615   Q   :    0.239217543    0.157768959   -0.048622059
 616   Q   :   -0.263927434    0.116678987   -0.034349023
 617   Q   :   -0.279318927    0.110020862    0.069572362
 618   Q   :    0.177008066   -0.139412304    0.170929297
 619   Q   :    0.106942489    0.019749311   -0.235031077
 620   Q   :    0.166772562    0.170795672    0.168191718
 621   Q   :    0.003358585    0.004376678   -0.283080979
 622   Q   :   -0.166052866   -0.189008689    0.119000338
 623   Q   :    0.017989267    0.228842318   -0.128360882
 624   Q   :    0.126552157   -0.047656908    0.255267950
 625   Q   :   -0.144446963   -0.184032686   -0.110548121
 626   Q   :    0.271085954   -0.016493006    0.098066455
 627   Q   :   -0.114735498    0.217004525   -0.110664959
 628   Q   :   -0.145758730   -0.194689431    0.022788867
 629   Q   :   -0.060280667    0.242693045   -0.072822688
 630   Q   :    0.183179929   -0.186951660   -0.093388335
 631   Q   :   -0.114224659   -0.066278563    0.168626399

Difference to translation invariance:
           :   -0.0000906821    0.0002029434    0.0000177090

Difference to rotation invariance:
           :   -0.0022599825   -0.0000986221   -0.0005012271

Norm of the cartesian gradient     ...    6.3137834509
RMS gradient                       ...    0.1451156914
MAX gradient                       ...    0.3305236054

-------
TIMINGS
-------

Total SCF gradient time            ...      168.231 sec

One electron gradient       ....      24.510 sec  ( 14.6%)
RI-J Coulomb gradient       ....       9.066 sec  (  5.4%)
COSX gradient               ....     100.994 sec  ( 60.0%)
XC gradient                 ....      13.745 sec  (  8.2%)

Maximum memory used throughout the entire SCFGRAD-calculation: 716.2 MB

                            ***************************************
                            *     ORCA property calculations      *
                            ***************************************

                                    ---------------------
                                    Active property flags
                                    ---------------------
   (+) Dipole Moment


------------------------------------------------------------------------------
                       ORCA ELECTRIC PROPERTIES CALCULATION
------------------------------------------------------------------------------

Dipole Moment Calculation                       ... on
Quadrupole Moment Calculation                   ... off
Polarizability Calculation                      ... off
GBWName                                         ... final001.orca.gbw
Electron density                                ... final001.orca.scfp
The origin for moment calculation is the CENTER OF MASS  = (21.029100, 21.498466 18.314450)

-------------
DIPOLE MOMENT
-------------
                                X             Y             Z
Electronic contribution:     -0.69752      -0.68540      -0.91742
Nuclear contribution   :     -0.32053       5.56319      -0.98152
                        -----------------------------------------
Total Dipole Moment    :     -1.01805       4.87779      -1.89893
                        -----------------------------------------
Magnitude (a.u.)       :      5.33247
Magnitude (Debye)      :     13.55405



--------------------
Rotational spectrum 
--------------------
 
Rotational constants in cm-1:     0.002025     0.001413     0.001276 
Rotational constants in MHz :    60.709533    42.363617    38.250212 

 Dipole components along the rotational axes: 
x,y,z [a.u.] :     3.364504     4.079409     0.688275 
x,y,z [Debye]:     8.551890    10.369033     1.749456 

 

Timings for individual modules:

Sum of individual times         ...      754.822 sec (=  12.580 min)
GTO integral calculation        ...       12.547 sec (=   0.209 min)   1.7 %
SCF iterations                  ...      569.575 sec (=   9.493 min)  75.5 %
SCF Gradient evaluation         ...      172.701 sec (=   2.878 min)  22.9 %
                             ****ORCA TERMINATED NORMALLY****
TOTAL RUN TIME: 0 days 0 hours 12 minutes 42 seconds 258 msec
