
                                 *****************
                                 * O   R   C   A *
                                 *****************

                                            #,                                       
                                            ###                                      
                                            ####                                     
                                            #####                                    
                                            ######                                   
                                           ########,                                 
                                     ,,################,,,,,                         
                               ,,#################################,,                 
                          ,,##########################################,,             
                       ,#########################################, ''#####,          
                    ,#############################################,,   '####,        
                  ,##################################################,,,,####,       
                ,###########''''           ''''###############################       
              ,#####''   ,,,,##########,,,,          '''####'''          '####       
            ,##' ,,,,###########################,,,                        '##       
           ' ,,###''''                  '''############,,,                           
         ,,##''                                '''############,,,,        ,,,,,,###''
      ,#''                                            '''#######################'''  
     '                                                          ''''####''''         
             ,#######,   #######,   ,#######,      ##                                
            ,#'     '#,  ##    ##  ,#'     '#,    #''#        ######   ,####,        
            ##       ##  ##   ,#'  ##            #'  '#       #        #'  '#        
            ##       ##  #######   ##           ,######,      #####,   #    #        
            '#,     ,#'  ##    ##  '#,     ,#' ,#      #,         ##   #,  ,#        
             '#######'   ##     ##  '#######'  #'      '#     #####' # '####'        



                  #######################################################
                  #                        -***-                        #
                  #          Department of theory and spectroscopy      #
                  #    Directorship and core code : Frank Neese         #
                  #        Max Planck Institute fuer Kohlenforschung    #
                  #                Kaiser Wilhelm Platz 1               #
                  #                 D-45470 Muelheim/Ruhr               #
                  #                      Germany                        #
                  #                                                     #
                  #                  All rights reserved                #
                  #                        -***-                        #
                  #######################################################


                         Program Version 5.0.3 -  RELEASE  -


 With contributions from (in alphabetic order):
   Daniel Aravena         : Magnetic Suceptibility
   Michael Atanasov       : Ab Initio Ligand Field Theory (pilot matlab implementation)
   Alexander A. Auer      : GIAO ZORA, VPT2 properties, NMR spectrum
   Ute Becker             : Parallelization
   Giovanni Bistoni       : ED, misc. LED, open-shell LED, HFLD
   Martin Brehm           : Molecular dynamics
   Dmytro Bykov           : SCF Hessian
   Vijay G. Chilkuri      : MRCI spin determinant printing, contributions to CSF-ICE
   Dipayan Datta          : RHF DLPNO-CCSD density
   Achintya Kumar Dutta   : EOM-CC, STEOM-CC
   Dmitry Ganyushin       : Spin-Orbit,Spin-Spin,Magnetic field MRCI
   Miquel Garcia          : C-PCM and meta-GGA Hessian, CC/C-PCM, Gaussian charge scheme
   Yang Guo               : DLPNO-NEVPT2, F12-NEVPT2, CIM, IAO-localization
   Andreas Hansen         : Spin unrestricted coupled pair/coupled cluster methods
   Benjamin Helmich-Paris : MC-RPA, TRAH-SCF, COSX integrals
   Lee Huntington         : MR-EOM, pCC
   Robert Izsak           : Overlap fitted RIJCOSX, COSX-SCS-MP3, EOM
   Marcus Kettner         : VPT2
   Christian Kollmar      : KDIIS, OOCD, Brueckner-CCSD(T), CCSD density, CASPT2, CASPT2-K
   Simone Kossmann        : Meta GGA functionals, TD-DFT gradient, OOMP2, MP2 Hessian
   Martin Krupicka        : Initial AUTO-CI
   Lucas Lang             : DCDCAS
   Marvin Lechner         : AUTO-CI (C++ implementation), FIC-MRCC
   Dagmar Lenk            : GEPOL surface, SMD
   Dimitrios Liakos       : Extrapolation schemes; Compound Job, initial MDCI parallelization
   Dimitrios Manganas     : Further ROCIS development; embedding schemes
   Dimitrios Pantazis     : SARC Basis sets
   Anastasios Papadopoulos: AUTO-CI, single reference methods and gradients
   Taras Petrenko         : DFT Hessian,TD-DFT gradient, ASA, ECA, R-Raman, ABS, FL, XAS/XES, NRVS
   Peter Pinski           : DLPNO-MP2, DLPNO-MP2 Gradient
   Christoph Reimann      : Effective Core Potentials
   Marius Retegan         : Local ZFS, SOC
   Christoph Riplinger    : Optimizer, TS searches, QM/MM, DLPNO-CCSD(T), (RO)-DLPNO pert. Triples
   Tobias Risthaus        : Range-separated hybrids, TD-DFT gradient, RPA, STAB
   Michael Roemelt        : Original ROCIS implementation
   Masaaki Saitow         : Open-shell DLPNO-CCSD energy and density
   Barbara Sandhoefer     : DKH picture change effects
   Avijit Sen             : IP-ROCIS
   Kantharuban Sivalingam : CASSCF convergence, NEVPT2, FIC-MRCI
   Bernardo de Souza      : ESD, SOC TD-DFT
   Georgi Stoychev        : AutoAux, RI-MP2 NMR, DLPNO-MP2 response
   Willem Van den Heuvel  : Paramagnetic NMR
   Boris Wezisla          : Elementary symmetry handling
   Frank Wennmohs         : Technical directorship


 We gratefully acknowledge several colleagues who have allowed us to
 interface, adapt or use parts of their codes:
   Stefan Grimme, W. Hujo, H. Kruse, P. Pracht,  : VdW corrections, initial TS optimization,
                  C. Bannwarth, S. Ehlert          DFT functionals, gCP, sTDA/sTD-DF
   Ed Valeev, F. Pavosevic, A. Kumar             : LibInt (2-el integral package), F12 methods
   Garnet Chan, S. Sharma, J. Yang, R. Olivares  : DMRG
   Ulf Ekstrom                                   : XCFun DFT Library
   Mihaly Kallay                                 : mrcc  (arbitrary order and MRCC methods)
   Jiri Pittner, Ondrej Demel                    : Mk-CCSD
   Frank Weinhold                                : gennbo (NPA and NBO analysis)
   Christopher J. Cramer and Donald G. Truhlar   : smd solvation model
   Lars Goerigk                                  : TD-DFT with DH, B97 family of functionals
   V. Asgeirsson, H. Jonsson                     : NEB implementation
   FAccTs GmbH                                   : IRC, NEB, NEB-TS, DLPNO-Multilevel, CI-OPT
                                                   MM, QMMM, 2- and 3-layer-ONIOM, Crystal-QMMM,
                                                   LR-CPCM, SF, NACMEs, symmetry and pop. for TD-DFT,
                                                   nearIR, NL-DFT gradient (VV10), updates on ESD,
                                                   ML-optimized integration grids
   S Lehtola, MJT Oliveira, MAL Marques          : LibXC Library
   Liviu Ungur et al                             : ANISO software


 Your calculation uses the libint2 library for the computation of 2-el integrals
 For citations please refer to: http://libint.valeyev.net

 Your ORCA version has been built with support for libXC version: 5.1.0
 For citations please refer to: https://tddft.org/programs/libxc/

 This ORCA versions uses:
   CBLAS   interface :  Fast vector & matrix operations
   LAPACKE interface :  Fast linear algebra routines
   SCALAPACK package :  Parallel linear algebra routines
   Shared memory     :  Shared parallel matrices
   BLAS/LAPACK       :  OpenBLAS 0.3.15  USE64BITINT DYNAMIC_ARCH NO_AFFINITY SkylakeX SINGLE_THREADED
        Core in use  :  SkylakeX
   Copyright (c) 2011-2014, The OpenBLAS Project


================================================================================

----- Orbital basis set information -----
Your calculation utilizes the basis: def2-SVP
   F. Weigend and R. Ahlrichs, Phys. Chem. Chem. Phys. 7, 3297 (2005).

The basis set includes element-specific modifications.

Your calculation utilizes the basis: aug-cc-pVTZ 
    H, B-Ne : Obtained from the ccRepo (grant-hill.group.shef.ac.uk/ccrepo) Feb. 2017
              R. A. Kendall, T. H. Dunning, Jr., R. J. Harrison, J. Chem. Phys. 96, 6796 (1992)
         He : Obtained from the ccRepo (grant-hill.group.shef.ac.uk/ccrepo) Feb. 2017
              D. E. Woon, T. H. Dunning, Jr., J. Chem. Phys. 100, 2975 (1994)
  Li-Be, Na : Obtained from the ccRepo (grant-hill.group.shef.ac.uk/ccrepo) Feb. 2017
              B. P. Prascher, D. E. Woon, K. A. Peterson, T. H. Dunning, Jr., A. K. Wilson, Theor. Chem. Acc. 128, 69 (2011)
         Mg : Obtained from the Peterson Research Group Website (tyr0.chem.wsu.edu/~kipeters) Feb. 2017
              B. P. Prascher, D. E. Woon, K. A. Peterson, T. H. Dunning, Jr., A. K. Wilson, Theor. Chem. Acc. 128, 69 (2011)
      Al-Ar : Obtained from the ccRepo (grant-hill.group.shef.ac.uk/ccrepo) Feb. 2017
              D. E. Woon, T. H. Dunning, Jr., J. Chem. Phys. 98, 1358 (1993)
      Sc-Zn : Obtained from the ccRepo (grant-hill.group.shef.ac.uk/ccrepo) Feb. 2017
              N. B. Balabanov, K. A. Peterson, J. Chem. Phys. 123, 064107 (2005)
              N. B. Balabanov, K. A. Peterson, J. Chem. Phys. 125, 074110 (2006)
      Ga-Kr : Obtained from the ccRepo (grant-hill.group.shef.ac.uk/ccrepo) Feb. 2017
              A. K. Wilson, D. E. Woon, K. A. Peterson, T. H. Dunning, Jr., J. Chem. Phys. 110, 7667 (1999)
     Ag, Au : Obtained from the Peterson Research Group Website (tyr0.chem.wsu.edu/~kipeters) Feb. 2017
              K. A. Peterson, C. Puzzarini, Theor. Chem. Acc. 114, 283 (2005)

Your calculation utilizes the basis: cc-pVTZ 
       H, B-Ne : Obtained from the ccRepo (grant-hill.group.shef.ac.uk/ccrepo) Feb. 2017
                 T. H. Dunning, Jr., J. Chem. Phys. 90, 1007 (1989)
            He : Obtained from the ccRepo (grant-hill.group.shef.ac.uk/ccrepo) Feb. 2017
                 D. E. Woon, T. H. Dunning, Jr., J. Chem. Phys. 100, 2975 (1994)
  Li-Be, Na-Mg : Obtained from the ccRepo (grant-hill.group.shef.ac.uk/ccrepo) Feb. 2017
                 B. P. Prascher, D. E. Woon, K. A. Peterson, T. H. Dunning, Jr., A. K. Wilson, Theor. Chem. Acc. 128, 69 (2011)
         Al-Ar : Obtained from the ccRepo (grant-hill.group.shef.ac.uk/ccrepo) Feb. 2017
                 D. E. Woon, T. H. Dunning, Jr., J. Chem. Phys. 98, 1358 (1993)
            Ca : Obtained from the Peterson Research Group Website (tyr0.chem.wsu.edu/~kipeters) Feb. 2017
                 J. Koput, K. A. Peterson, J. Phys. Chem. 106, 9595 (2002)
         Sc-Zn : Obtained from the ccRepo (grant-hill.group.shef.ac.uk/ccrepo) Feb. 2017
                 N. B. Balabanov, K. A. Peterson, J. Chem. Phys. 123, 064107 (2005)
                 N. B. Balabanov, K. A. Peterson, J. Chem. Phys. 125, 074110 (2006)
         Ga-Kr : Obtained from the ccRepo (grant-hill.group.shef.ac.uk/ccrepo) Feb. 2017
                 A. K. Wilson, D. E. Woon, K. A. Peterson, T. H. Dunning, Jr., J. Chem. Phys. 110, 7667 (1999)
             Y : Obtained from the ccRepo (grant-hill.group.shef.ac.uk/ccrepo) Feb. 2017
                 K. A. Peterson, D. Figgen, M. Dolg, H. Stoll, J. Chem. Phys. 126, 124101 (2007)
        Ag, Au : Obtained from the Peterson Research Group Website (tyr0.chem.wsu.edu/~kipeters) Feb. 2017
                 K. A. Peterson, C. Puzzarini, Theor. Chem. Acc. 114, 283 (2005)

----- AuxJ basis set information -----
Your calculation utilizes the auxiliary basis: def2/J
   F. Weigend, Phys. Chem. Chem. Phys. 8, 1057 (2006).

================================================================================
                                        WARNINGS
                       Please study these warnings very carefully!
================================================================================

WARNING: The globally-selected AuxJ basis set is optimized for use with ECPs
         Make sure a suitable alternative is explicitly given all heavy elements (Z>36)

INFO   : the flag for use of the SHARK integral package has been found!

================================================================================
                                       INPUT FILE
================================================================================
NAME = final084.orca.inp
|  1> ! NoMOPrint PrintBasis #MINIPRINT SMALLPRINT LARGEPRINT
|  2> ! ALLPOP XYZFILE
|  3> #! BP86 3-21G   TightSCF
|  4> ! ENGRAD
|  5> ! B3LYP NormalPNO PModel #DecontractAux
|  6> #! VerySlowConv 
|  7>  %maxcore 5000
|  8>  %scf  maxiter   500  end 
|  9> 
| 10> %pal
| 11>     nprocs 32
| 12> end
| 13> 
| 14> %basis
| 15>     NewGTO O    # New basis for oxygen
| 16>         "aug-cc-pVTZ"
| 17>     end
| 18>     NewGTO C    # New basis for carbon
| 19>         "aug-cc-pVTZ"
| 20>     end
| 21>     NewGTO H    # New basis for hydrogen
| 22>         "cc-pVTZ"
| 23>     end
| 24> end
| 25> 
| 26> * xyz 0   1
| 27>   C  11.36  9  10.04  #1
| 28>   H  10.6  8.21  10.26  #2
| 29>   H  12.26  8.86  10.58  #3
| 30>   C  10.9  10.48  10.19  #4
| 31>   H  11.73  11.07  9.82  #5
| 32>   H  10.09  10.63  9.46  #6
| 33>   C  10.51  10.97  11.57  #7
| 34>   H  10.78  10.3  12.43  #8
| 35>   H  9.45  10.85  11.62  #9
| 36>   C  10.82  12.45  11.74  #10
| 37>   H  10.14  12.98  11  #11
| 38>   H  11.8  12.72  11.46  #12
| 39>   O  10.49  12.95  13.06  #13
| 40>   H  10.98  13.79  13.14  #14
| 41>   O  11.6  8.84  8.66  #15
| 42>   H  11.78  7.92  8.57  #16
| 43>   O  12.41  15.4  12.39  #17
| 44>   H  13.24  15.8  12.6  #18
| 45>   H  12.6  14.74  11.73  #19
| 46>   O  13.72  11.43  12.39  #20
| 47>   H  13.86  12.17  12.99  #21
| 48>   H  14.62  11.2  12.02  #22
| 49>   O  8.02  10.84  7  #23
| 50>   H  8.97  10.52  6.89  #24
| 51>   H  8.09  11.8  7.13  #25
| 52>   O  7.36  8.98  11.96  #26
| 53>   H  7.05  9.79  12.39  #27
| 54>   H  7.6  8.37  12.66  #28
| 55>   O  8.5  12.23  14.76  #29
| 56>   H  8.81  11.51  15.32  #30
| 57>   H  9.19  12.34  14.04  #31
| 58>   O  6.3  10.35  4.99  #32
| 59>   H  6.53  9.77  4.28  #33
| 60>   H  7.03  10.43  5.64  #34
| 61>   O  8.78  15.53  10.27  #35
| 62>   H  9.6  15.19  9.86  #36
| 63>   H  8.29  14.87  10.75  #37
| 64>   O  7.3  13.55  10.65  #38
| 65>   H  6.54  13.61  9.93  #39
| 66>   H  7.02  12.72  11.08  #40
| 67>   O  10.22  5.59  12.44  #41
| 68>   H  11.14  5.91  12.55  #42
| 69>   H  10  5.57  11.48  #43
| 70>   O  4.77  7.81  11.19  #44
| 71>   H  5.68  8.21  11.39  #45
| 72>   H  4.45  8.19  10.33  #46
| 73>   O  15.35  16.52  13.45  #47
| 74>   H  16.28  16.19  13.4  #48
| 75>   H  15.11  16.02  14.29  #49
| 76>   O  9.54  10.11  16.74  #50
| 77>   H  10.18  10.55  17.33  #51
| 78>   H  9.96  9.54  16.08  #52
| 79>   O  14.04  12.55  15.23  #53
| 80>   H  13.47  12.05  15.83  #54
| 81>   H  14.95  12.21  15.22  #55
| 82>   O  7.23  11.49  17.91  #56
| 83>   H  7.7  11  17.18  #57
| 84>   H  7.97  11.77  18.46  #58
| 85>   O  8.75  13.48  6.8  #59
| 86>   H  8.03  14.07  6.84  #60
| 87>   H  8.89  13.31  5.87  #61
| 88>   O  11.26  15.62  15.16  #62
| 89>   H  12.17  15.36  15.03  #63
| 90>   H  11.1  15.87  14.26  #64
| 91>   O  6.54  11.45  12.76  #65
| 92>   H  7.18  12.03  13.27  #66
| 93>   H  5.73  11.49  13.29  #67
| 94>   O  12.87  14.18  9.81  #68
| 95>   H  13.59  13.53  9.66  #69
| 96>   H  12.23  13.97  9.14  #70
| 97>   O  13.06  8.97  13.75  #71
| 98>   H  13.16  9.81  13.27  #72
| 99>   H  13.82  8.9  14.34  #73
|100>   O  12.15  17.28  10.28  #74
|101>   H  12.31  16.58  10.97  #75
|102>   H  12.71  18.07  10.51  #76
|103>   O  10.54  8.18  15.22  #77
|104>   H  11.23  8.55  14.64  #78
|105>   H  10.57  7.24  15.2  #79
|106>   O  7  9.1  9.05  #80
|107>   H  7.41  9  9.93  #81
|108>   H  7.56  9.78  8.61  #82
|109>   O  15.32  12.69  9.29  #83
|110>   H  16.06  13.28  9.06  #84
|111>   H  15.7  12  9.94  #85
|112>   O  12.2  6.16  8.25  #86
|113>   H  11.92  6.24  7.36  #87
|114>   H  11.47  5.73  8.7  #88
|115>   O  10.56  17.69  13.06  #89
|116>   H  9.72  17.84  12.68  #90
|117>   H  11.18  17.6  12.29  #91
|118>   O  8.34  12.47  4.13  #92
|119>   H  7.63  13.02  3.77  #93
|120>   H  7.93  11.75  4.62  #94
|121>   O  7.46  14.93  14.97  #95
|122>   H  7.6  15.41  15.75  #96
|123>   H  8.09  14.29  14.92  #97
|124>   O  8.15  7.12  13.63  #98
|125>   H  8.81  6.61  13.18  #99
|126>   H  8.59  7.65  14.28  #100
|127>   O  9.88  5.42  9.6  #101
|128>   H  9.93  4.47  9.37  #102
|129>   H  9.19  5.88  9.05  #103
|130>   O  16.6  11.25  11.47  #104
|131>   H  17.13  11.74  12.13  #105
|132>   H  16.61  10.3  11.77  #106
|133>   O  8.87  9.07  4.51  #107
|134>   H  9.59  9.28  5.09  #108
|135>   H  9.08  9.28  3.6  #109
|136>   O  10.93  10.28  6.58  #110
|137>   H  11.4  11.12  6.66  #111
|138>   H  11.4  9.79  7.32  #112
|139>   Q  0.6645  19.95$  12.17$  10.17$
|140>   Q  0.6645  19.7$  12.59$  11.6$
|141>   Q  -1.3290  20.18$  12.52$  10.9$
|142>   Q  0.6645  4.39$  13.68$  8.88$
|143>   Q  0.6645  5.25$  13.54$  7.59$
|144>   Q  -1.3290  4.97$  13.34$  8.4$
|145>   Q  0.6645  18.9$  6.37$  7.06$
|146>   Q  0.6645  18.4$  6.87$  8.44$
|147>   Q  -1.3290  18.77$  6.33$  7.89$
|148>   Q  0.6645  13.91$  16.43$  3.74$
|149>   Q  0.6645  13.25$  17.84$  3.79$
|150>   Q  -1.3290  13.82$  17.24$  3.55$
|151>   Q  0.6645  16.38$  10.11$  18.56$
|152>   Q  0.6645  15.33$  9.22$  18.13$
|153>   Q  -1.3290  15.62$  9.92$  18.33$
|154>   Q  0.6645  18.08$  11.22$  9.89$
|155>   Q  0.6645  19.08$  10.57$  8.86$
|156>   Q  -1.3290  18.54$  11.17$  9.16$
|157>   Q  0.6645  15.87$  4.34$  15.7$
|158>   Q  0.6645  16.43$  4.98$  16.96$
|159>   Q  -1.3290  15.94$  4.48$  16.54$
|160>   Q  0.6645  10.32$  14.92$  20.43$
|161>   Q  0.6645  10.34$  16.37$  19.99$
|162>   Q  -1.3290  10.01$  15.6$  20.07$
|163>   Q  0.6645  12.23$  1.09$  6.44$
|164>   Q  0.6645  11.51$  -0.26$  6.83$
|165>   Q  -1.3290  11.77$  0.38$  6.34$
|166>   Q  0.6645  8.64$  6.88$  2$
|167>   Q  0.6645  10.15$  6.74$  1.73$
|168>   Q  -1.3290  9.38$  7.05$  1.59$
|169>   Q  0.6645  11.94$  13.6$  6.76$
|170>   Q  0.6645  10.71$  13.36$  7.55$
|171>   Q  -1.3290  11.52$  13.22$  7.31$
|172>   Q  0.6645  6.26$  2.97$  16.37$
|173>   Q  0.6645  6.12$  4.48$  16.71$
|174>   Q  -1.3290  5.85$  3.71$  16.6$
|175>   Q  0.6645  13.46$  11.44$  4.57$
|176>   Q  0.6645  12.38$  12.48$  4.9$
|177>   Q  -1.3290  12.69$  11.75$  4.59$
|178>   Q  0.6645  8.75$  2.85$  7.43$
|179>   Q  0.6645  9.94$  3$  6.67$
|180>   Q  -1.3290  9.51$  2.67$  7.25$
|181>   Q  0.6645  14.01$  3.92$  17.55$
|182>   Q  0.6645  12.61$  3.57$  18.28$
|183>   Q  -1.3290  13.47$  3.53$  18.12$
|184>   Q  0.6645  17.58$  11.78$  2.95$
|185>   Q  0.6645  18.33$  11.91$  1.68$
|186>   Q  -1.3290  17.7$  11.67$  2.15$
|187>   Q  0.6645  13.39$  15.83$  19.42$
|188>   Q  0.6645  12.76$  14.86$  18.49$
|189>   Q  -1.3290  13.42$  15.17$  18.89$
|190>   Q  0.6645  16.74$  3.01$  4.7$
|191>   Q  0.6645  17.8$  1.86$  4.35$
|192>   Q  -1.3290  17.05$  2.29$  4.32$
|193>   Q  0.6645  8.81$  8.63$  17.84$
|194>   Q  0.6645  8.39$  7.72$  18.89$
|195>   Q  -1.3290  8.61$  7.91$  18.15$
|196>   Q  0.6645  5.47$  14.04$  3.05$
|197>   Q  0.6645  5.52$  12.55$  3.34$
|198>   Q  -1.3290  5.64$  13.36$  3.52$
|199>   Q  0.6645  7.02$  16.48$  20.79$
|200>   Q  0.6645  8.09$  15.83$  19.97$
|201>   Q  -1.3290  7.3$  15.92$  20.22$
|202>   Q  0.6645  16.71$  3.77$  7.4$
|203>   Q  0.6645  17.81$  4.61$  7.98$
|204>   Q  -1.3290  17.4$  3.9$  7.85$
|205>   Q  0.6645  7.56$  7.61$  7.81$
|206>   Q  0.6645  7.32$  6.32$  6.95$
|207>   Q  -1.3290  7.74$  6.93$  7.31$
|208>   Q  0.6645  5.55$  17.63$  9.46$
|209>   Q  0.6645  6.58$  17.97$  8.36$
|210>   Q  -1.3290  5.82$  17.98$  8.75$
|211>   Q  0.6645  16.7$  15.39$  4.7$
|212>   Q  0.6645  18.11$  15.93$  4.75$
|213>   Q  -1.3290  17.44$  15.56$  4.4$
|214>   Q  0.6645  17.88$  13.08$  8$
|215>   Q  0.6645  16.87$  13.85$  7.04$
|216>   Q  -1.3290  17.52$  13.78$  7.62$
|217>   Q  0.6645  18.18$  15.57$  11.99$
|218>   Q  0.6645  18.99$  15.53$  13.35$
|219>   Q  -1.3290  18.31$  15.56$  12.86$
|220>   Q  0.6645  7.2$  6.46$  15.48$
|221>   Q  0.6645  7.46$  6.57$  17$
|222>   Q  -1.3290  7.23$  6.19$  16.3$
|223>   Q  0.6645  10.21$  2.33$  8.87$
|224>   Q  0.6645  9.66$  2.43$  10.4$
|225>   Q  -1.3290  10.21$  2.55$  9.73$
|226>   Q  0.6645  1.87$  6.06$  15.12$
|227>   Q  0.6645  3$  7.05$  15.05$
|228>   Q  -1.3290  2.6$  6.38$  15.37$
|229>   Q  0.6645  19.55$  7.67$  12.47$
|230>   Q  0.6645  20.83$  8.57$  12.49$
|231>   Q  -1.3290  19.99$  8.37$  12.34$
|232>   Q  0.6645  6.16$  8.25$  2.35$
|233>   Q  0.6645  6.05$  9.22$  1.35$
|234>   Q  -1.3290  5.91$  8.96$  2.09$
|235>   Q  0.6645  13.25$  14.4$  1.76$
|236>   Q  0.6645  13.86$  13.08$  2.43$
|237>   Q  -1.3290  13.42$  13.83$  2.39$
|238>   Q  0.6645  11.99$  6.93$  18.41$
|239>   Q  0.6645  10.46$  6.99$  18.36$
|240>   Q  -1.3290  11.22$  6.66$  18.23$
|241>   Q  0.6645  5.48$  10.03$  8.87$
|242>   Q  0.6645  4.84$  11.39$  9.13$
|243>   Q  -1.3290  4.84$  10.53$  9.03$
|244>   Q  0.6645  7.79$  7.05$  4.06$
|245>   Q  0.6645  6.76$  6.13$  3.67$
|246>   Q  -1.3290  7.24$  6.77$  3.52$
|247>   Q  0.6645  19.01$  10.87$  5.38$
|248>   Q  0.6645  18.18$  9.85$  4.68$
|249>   Q  -1.3290  18.3$  10.53$  5.12$
|250>   Q  0.6645  18.2$  18.9$  10.71$
|251>   Q  0.6645  18.19$  17.56$  10.05$
|252>   Q  -1.3290  18.54$  18.21$  10.42$
|253>   Q  0.6645  17.61$  15.48$  9.27$
|254>   Q  0.6645  16.19$  15.97$  9.59$
|255>   Q  -1.3290  17$  15.71$  9.79$
|256>   Q  0.6645  10.54$  1.82$  2.14$
|257>   Q  0.6645  9.3$  2.74$  2.39$
|258>   Q  -1.3290  9.98$  2.44$  1.98$
|259>   Q  0.6645  1.65$  9.62$  15.35$
|260>   Q  0.6645  2.9$  9.88$  14.66$
|261>   Q  -1.3290  2.35$  10.04$  15.26$
|262>   Q  0.6645  6.66$  17.36$  16.73$
|263>   Q  0.6645  6.95$  16.56$  18.17$
|264>   Q  -1.3290  7.1$  16.93$  17.34$
|265>   Q  0.6645  13.11$  2.31$  11.68$
|266>   Q  0.6645  12.02$  2.48$  10.53$
|267>   Q  -1.3290  12.81$  2.3$  10.88$
|268>   Q  0.6645  12.82$  19.84$  11.72$
|269>   Q  0.6645  14.18$  19.28$  12.27$
|270>   Q  -1.3290  13.52$  19.35$  11.71$
|271>   Q  0.6645  13.97$  10.68$  21$
|272>   Q  0.6645  12.82$  9.72$  21.46$
|273>   Q  -1.3290  13.62$  9.93$  21.18$
|274>   Q  0.6645  2.71$  15.01$  10.11$
|275>   Q  0.6645  2.05$  13.74$  10.11$
|276>   Q  -1.3290  2.63$  14.27$  9.83$
|277>   Q  0.6645  9.86$  3.69$  17.82$
|278>   Q  0.6645  10.62$  4.75$  18.76$
|279>   Q  -1.3290  10.42$  3.97$  18.41$
|280>   Q  0.6645  15.8$  5.91$  2.84$
|281>   Q  0.6645  15.1$  7.31$  3.04$
|282>   Q  -1.3290  15.66$  6.66$  3.17$
|283>   Q  0.6645  2.05$  9.83$  5.52$
|284>   Q  0.6645  1.12$  8.85$  4.88$
|285>   Q  -1.3290  1.3$  9.55$  5.28$
|286>   Q  0.6645  17.51$  7.96$  3.14$
|287>   Q  0.6645  17.37$  9.32$  2.53$
|288>   Q  -1.3290  17.78$  8.68$  2.88$
|289>   Q  0.6645  14.42$  12.96$  20.08$
|290>   Q  0.6645  14.5$  12.62$  21.75$
|291>   Q  -1.3290  14.14$  12.72$  20.9$
|292>   Q  0.6645  15.54$  6.85$  14.46$
|293>   Q  0.6645  16.21$  8.23$  14.28$
|294>   Q  -1.3290  15.64$  7.67$  14.59$
|295>   Q  0.6645  15.54$  5$  5.99$
|296>   Q  0.6645  14.82$  3.7$  5.97$
|297>   Q  -1.3290  15.48$  4.22$  5.82$
|298>   Q  0.6645  6.34$  14.28$  16.62$
|299>   Q  0.6645  6.42$  13.3$  17.69$
|300>   Q  -1.3290  6$  13.8$  17.16$
|301>   Q  0.6645  6.96$  4.32$  5.17$
|302>   Q  0.6645  5.56$  4.8$  5.64$
|303>   Q  -1.3290  6.44$  4.78$  5.64$
|304>   Q  0.6645  13.51$  8.19$  19.94$
|305>   Q  0.6645  14.14$  7.19$  18.88$
|306>   Q  -1.3290  13.54$  7.52$  19.41$
|307>   Q  0.6645  5.83$  3.67$  11.07$
|308>   Q  0.6645  5.12$  2.22$  10.84$
|309>   Q  -1.3290  5.76$  2.83$  10.85$
|310>   Q  0.6645  11.27$  4.4$  15.54$
|311>   Q  0.6645  11.55$  5.73$  16.45$
|312>   Q  -1.3290  11.49$  5.22$  15.75$
|313>   Q  0.6645  17.32$  5.24$  11.24$
|314>   Q  0.6645  17.17$  6.8$  11.02$
|315>   Q  -1.3290  17.2$  6.07$  11.44$
|316>   Q  0.6645  8.75$  18.61$  17.02$
|317>   Q  0.6645  10.28$  18.37$  17.42$
|318>   Q  -1.3290  9.56$  18.82$  17.26$
|319>   Q  0.6645  4.76$  18.2$  16.13$
|320>   Q  0.6645  4.13$  17.31$  15.08$
|321>   Q  -1.3290  4.77$  17.59$  15.53$
|322>   Q  0.6645  14.54$  2.86$  13.61$
|323>   Q  0.6645  14.17$  1.38$  13.49$
|324>   Q  -1.3290  14.03$  2.21$  13.45$
|325>   Q  0.6645  4.22$  8.03$  5.96$
|326>   Q  0.6645  3.84$  7.64$  7.33$
|327>   Q  -1.3290  4.06$  7.49$  6.54$
|328>   Q  0.6645  10.78$  19.03$  14.2$
|329>   Q  0.6645  10.31$  19.83$  15.5$
|330>   Q  -1.3290  10.64$  19.73$  14.72$
|331>   Q  0.6645  7.55$  0.98$  16.29$
|332>   Q  0.6645  7.53$  1.28$  14.86$
|333>   Q  -1.3290  7.21$  1.33$  15.66$
|334>   Q  0.6645  5.43$  5.94$  11.8$
|335>   Q  0.6645  5.35$  4.82$  12.85$
|336>   Q  -1.3290  5.44$  5.16$  12.07$
|337>   Q  0.6645  3.8$  14.78$  12.96$
|338>   Q  0.6645  2.49$  14.05$  12.48$
|339>   Q  -1.3290  2.97$  14.72$  12.72$
|340>   Q  0.6645  12.96$  7.83$  2.19$
|341>   Q  0.6645  13.03$  8.52$  3.68$
|342>   Q  -1.3290  13.25$  8.37$  2.84$
|343>   Q  0.6645  7.27$  3.26$  3.25$
|344>   Q  0.6645  8.14$  2.29$  4.18$
|345>   Q  -1.3290  7.94$  3.05$  3.76$
|346>   Q  0.6645  7.29$  20.61$  12.88$
|347>   Q  0.6645  8.65$  20.21$  13.64$
|348>   Q  -1.3290  8$  20.69$  13.36$
|349>   Q  0.6645  4.26$  8.04$  13.05$
|350>   Q  0.6645  4.82$  8.47$  14.38$
|351>   Q  -1.3290  4.23$  8.2$  13.87$
|352>   Q  0.6645  1.2$  8.83$  11.52$
|353>   Q  0.6645  1.02$  7.22$  11.71$
|354>   Q  -1.3290  0.98$  8.05$  11.94$
|355>   Q  0.6645  16.93$  3.4$  2.23$
|356>   Q  0.6645  15.5$  3.49$  1.69$
|357>   Q  -1.3290  16.21$  3.81$  2.06$
|358>   Q  0.6645  4.13$  17.54$  11.33$
|359>   Q  0.6645  5.28$  16.55$  11.62$
|360>   Q  -1.3290  4.66$  16.9$  11.16$
|361>   Q  0.6645  13.48$  4.91$  8.86$
|362>   Q  0.6645  13.45$  3.46$  9.37$
|363>   Q  -1.3290  13.68$  4.11$  8.85$
|364>   Q  0.6645  11.4$  14.96$  4.92$
|365>   Q  0.6645  12.55$  14.39$  4.2$
|366>   Q  -1.3290  12.02$  14.44$  4.82$
|367>   Q  0.6645  4.56$  10.46$  5.91$
|368>   Q  0.6645  3.84$  10.17$  7.3$
|369>   Q  -1.3290  3.89$  10.31$  6.45$
|370>   Q  0.6645  8.13$  16.46$  6.04$
|371>   Q  0.6645  7.61$  15.55$  4.99$
|372>   Q  -1.3290  8.04$  16.2$  5.27$
|373>   Q  0.6645  15.21$  6.8$  4.91$
|374>   Q  0.6645  14.37$  7.26$  6.08$
|375>   Q  -1.3290  15.08$  7$  5.69$
|376>   Q  0.6645  19.05$  6.47$  4.43$
|377>   Q  0.6645  20.14$  7.35$  5$
|378>   Q  -1.3290  19.37$  7.01$  4.98$
|379>   Q  0.6645  9.81$  16.62$  5.11$
|380>   Q  0.6645  10.94$  17.48$  5.11$
|381>   Q  -1.3290  10.59$  16.79$  5.31$
|382>   Q  0.6645  17.18$  13.65$  17.3$
|383>   Q  0.6645  18.59$  13.94$  16.81$
|384>   Q  -1.3290  17.89$  13.47$  16.95$
|385>   Q  0.6645  9.63$  6.85$  6.2$
|386>   Q  0.6645  10.56$  5.68$  5.8$
|387>   Q  -1.3290  10.37$  6.47$  6.02$
|388>   Q  0.6645  8.44$  3.2$  15.72$
|389>   Q  0.6645  8.51$  4.59$  16.29$
|390>   Q  -1.3290  8.64$  3.75$  16.28$
|391>   Q  0.6645  7.05$  20.64$  6.24$
|392>   Q  0.6645  7.43$  19.51$  5.27$
|393>   Q  -1.3290  7.54$  20.04$  5.92$
|394>   Q  0.6645  11.86$  19.19$  7.48$
|395>   Q  0.6645  13.42$  19.17$  7.92$
|396>   Q  -1.3290  12.71$  19.31$  7.42$
|397>   Q  0.6645  20.85$  9.07$  10.16$
|398>   Q  0.6645  21.03$  8.95$  8.63$
|399>   Q  -1.3290  20.64$  9.19$  9.36$
|400>   Q  0.6645  13.87$  14.21$  15.63$
|401>   Q  0.6645  14.11$  15.25$  16.64$
|402>   Q  -1.3290  14.04$  14.99$  15.87$
|403>   Q  0.6645  18.9$  8.18$  15.85$
|404>   Q  0.6645  19.03$  7.03$  16.7$
|405>   Q  -1.3290  19.2$  7.42$  16.03$
|406>   Q  0.6645  7.24$  17.6$  3.92$
|407>   Q  0.6645  6.04$  18.05$  4.71$
|408>   Q  -1.3290  6.61$  18.11$  4.12$
|409>   Q  0.6645  14.74$  18.22$  8.98$
|410>   Q  0.6645  14.57$  19.42$  9.95$
|411>   Q  -1.3290  14.77$  19.04$  9.23$
|412>   Q  0.6645  5.34$  12.53$  15.77$
|413>   Q  0.6645  4.11$  11.79$  15.49$
|414>   Q  -1.3290  4.92$  11.95$  15.38$
|415>   Q  0.6645  14.2$  16.96$  5.75$
|416>   Q  0.6645  12.86$  16.22$  5.68$
|417>   Q  -1.3290  13.66$  16.36$  5.94$
|418>   Q  0.6645  10.58$  11.75$  19.66$
|419>   Q  0.6645  10.8$  12.51$  18.47$
|420>   Q  -1.3290  10.55$  11.85$  18.84$
|421>   Q  0.6645  13.88$  11.25$  17.7$
|422>   Q  0.6645  12.31$  11.09$  18.1$
|423>   Q  -1.3290  13.01$  11.2$  17.58$
|424>   Q  0.6645  14.46$  19.45$  6.23$
|425>   Q  0.6645  15.23$  19.38$  4.89$
|426>   Q  -1.3290  15.01$  19.13$  5.67$
|427>   Q  0.6645  17.67$  3.17$  10$
|428>   Q  0.6645  18.31$  3.14$  11.25$
|429>   Q  -1.3290  17.65$  3.17$  10.8$
|430>   Q  0.6645  11.61$  7.69$  5.31$
|431>   Q  0.6645  12.27$  8.96$  5.73$
|432>   Q  -1.3290  12.3$  8.18$  5.44$
|433>   Q  0.6645  15.01$  7.39$  16.67$
|434>   Q  0.6645  16.15$  7.04$  17.69$
|435>   Q  -1.3290  15.36$  7.25$  17.46$
|436>   Q  0.6645  3$  6.84$  9.16$
|437>   Q  0.6645  2.3$  8.21$  8.66$
|438>   Q  -1.3290  2.98$  7.68$  8.94$
|439>   Q  0.6645  8.42$  17.53$  10.71$
|440>   Q  0.6645  7.52$  18.01$  11.92$
|441>   Q  -1.3290  8.19$  18.04$  11.37$
|442>   Q  0.6645  3.46$  3.8$  10.14$
|443>   Q  0.6645  3.85$  5.1$  10.95$
|444>   Q  -1.3290  3.37$  4.6$  10.44$
|445>   Q  0.6645  3.59$  4.87$  14.53$
|446>   Q  0.6645  4.75$  3.87$  15.05$
|447>   Q  -1.3290  4.15$  4.22$  14.48$
|448>   Q  0.6645  5.31$  18.38$  12.59$
|449>   Q  0.6645  6.06$  18.32$  13.93$
|450>   Q  -1.3290  5.99$  18.36$  13.1$
|451>   Q  0.6645  6.44$  3.92$  7.44$
|452>   Q  0.6645  6.16$  3.12$  8.84$
|453>   Q  -1.3290  6.46$  3.24$  8.03$
|454>   Q  0.6645  19.04$  6.34$  14.45$
|455>   Q  0.6645  18.15$  6.25$  13.17$
|456>   Q  -1.3290  18.84$  6.11$  13.67$
|457>   Q  0.6645  15.46$  0.88$  14.74$
|458>   Q  0.6645  15.49$  -0.37$  13.65$
|459>   Q  -1.3290  15.79$  0.34$  14.08$
|460>   Q  0.6645  17.53$  9.49$  6.72$
|461>   Q  0.6645  16.33$  8.73$  6.57$
|462>   Q  -1.3290  16.86$  9.13$  7.02$
|463>   Q  0.6645  11.29$  21.45$  12.5$
|464>   Q  0.6645  11.66$  22.42$  11.34$
|465>   Q  -1.3290  11.51$  21.67$  11.73$
|466>   Q  0.6645  4.7$  18.36$  6.99$
|467>   Q  0.6645  3.62$  18.88$  6.08$
|468>   Q  -1.3290  4.31$  18.45$  6.26$
|469>   Q  0.6645  1.62$  11.64$  11.56$
|470>   Q  0.6645  0.28$  12.37$  11.49$
|471>   Q  -1.3290  1.12$  12.3$  11.67$
|472>   Q  0.6645  15.72$  18.35$  13.45$
|473>   Q  0.6645  16.48$  19.61$  12.76$
|474>   Q  -1.3290  15.93$  19.18$  13.29$
|475>   Q  0.6645  15.14$  10.16$  7.48$
|476>   Q  0.6645  14.7$  11.51$  7.92$
|477>   Q  -1.3290  14.65$  10.83$  7.44$
|478>   Q  0.6645  6.21$  20.22$  15.97$
|479>   Q  0.6645  7.27$  19.87$  14.99$
|480>   Q  -1.3290  6.9$  19.83$  15.72$
|481>   Q  0.6645  5.75$  13.95$  5.54$
|482>   Q  0.6645  5.32$  15.24$  6.26$
|483>   Q  -1.3290  5.81$  14.55$  6.1$
|484>   Q  0.6645  2.71$  9.48$  10.43$
|485>   Q  0.6645  1.57$  10.44$  9.97$
|486>   Q  -1.3290  2.01$  9.97$  10.51$
|487>   Q  0.6645  4.9$  9.51$  18.87$
|488>   Q  0.6645  5.86$  10.72$  18.8$
|489>   Q  -1.3290  5.29$  10.19$  19.18$
|490>   Q  0.6645  6.14$  14.81$  13.71$
|491>   Q  0.6645  6.18$  14.26$  12.32$
|492>   Q  -1.3290  5.81$  14.63$  12.97$
|493>   Q  0.6645  9.32$  4.03$  13.4$
|494>   Q  0.6645  8.67$  2.75$  13.01$
|495>   Q  -1.3290  9.07$  3.26$  13.53$
|496>   Q  0.6645  10.63$  8.71$  0.58$
|497>   Q  0.6645  11.13$  10$  1.13$
|498>   Q  -1.3290  11.16$  9.34$  0.63$
|499>   Q  0.6645  11.28$  12.73$  22.4$
|500>   Q  0.6645  12.32$  12.96$  21.24$
|501>   Q  -1.3290  11.58$  13.06$  21.64$
|502>   Q  0.6645  17.97$  13.5$  13.2$
|503>   Q  0.6645  18.92$  12.39$  13.75$
|504>   Q  -1.3290  18.24$  12.73$  13.34$
|505>   Q  0.6645  19.4$  4.09$  4.95$
|506>   Q  0.6645  19.04$  3.53$  6.35$
|507>   Q  -1.3290  19.52$  3.63$  5.65$
|508>   Q  0.6645  7.34$  21.2$  9.21$
|509>   Q  0.6645  6.16$  20.17$  8.96$
|510>   Q  -1.3290  6.51$  20.93$  9.09$
|511>   Q  0.6645  7.29$  1.71$  11.72$
|512>   Q  0.6645  8.38$  0.75$  12.06$
|513>   Q  -1.3290  8.08$  1.48$  11.82$
|514>   Q  0.6645  12.55$  0.62$  3.42$
|515>   Q  0.6645  13.45$  0.94$  4.51$
|516>   Q  -1.3290  13.24$  0.92$  3.73$
|517>   Q  0.6645  7.26$  12.34$  20.65$
|518>   Q  0.6645  7.76$  10.98$  21.11$
|519>   Q  -1.3290  7.83$  11.8$  20.92$
|520>   Q  0.6645  5.75$  21.52$  10.75$
|521>   Q  0.6645  5.27$  20.61$  11.87$
|522>   Q  -1.3290  5.59$  21.3$  11.55$
|523>   Q  0.6645  12.46$  20.81$  14.34$
|524>   Q  0.6645  13.75$  21.4$  15.08$
|525>   Q  -1.3290  13.26$  21.14$  14.43$
|526>   Q  0.6645  9.75$  0.87$  5.43$
|527>   Q  0.6645  8.61$  -0.03$  4.75$
|528>   Q  -1.3290  9.25$  0.56$  4.79$
|529>   Q  0.6645  13.88$  4.45$  4.35$
|530>   Q  0.6645  13.31$  3.73$  3.09$
|531>   Q  -1.3290  13.34$  4.31$  3.69$
|532>   Q  0.6645  16.04$  1.69$  10.65$
|533>   Q  0.6645  14.9$  0.77$  10.32$
|534>   Q  -1.3290  15.7$  0.94$  10.47$
|535>   Q  0.6645  12.65$  4.19$  -0.04$
|536>   Q  0.6645  11.51$  3.85$  0.85$
|537>   Q  -1.3290  12.03$  3.7$  0.21$
|538>   Q  0.6645  2.17$  16.16$  14.24$
|539>   Q  0.6645  1.86$  17.51$  14.71$
|540>   Q  -1.3290  2.14$  16.75$  14.82$
|541>   Q  0.6645  11.98$  20.46$  17.89$
|542>   Q  0.6645  12.81$  19.18$  17.62$
|543>   Q  -1.3290  12.67$  19.96$  17.88$
|544>   Q  0.6645  15.76$  4.96$  12.68$
|545>   Q  0.6645  14.42$  5.42$  13.35$
|546>   Q  -1.3290  15.18$  5.04$  13.32$
|547>   Q  0.6645  15.09$  11.21$  5.71$
|548>   Q  0.6645  16.32$  11.15$  5$
|549>   Q  -1.3290  15.58$  11.41$  5.1$
|550>   Q  0.6645  17.17$  12.19$  15.87$
|551>   Q  0.6645  16.25$  10.99$  16.21$
|552>   Q  -1.3290  16.66$  11.5$  15.7$
|553>   Q  0.6645  9.95$  20.16$  8.37$
|554>   Q  0.6645  9.37$  20.24$  7.08$
|555>   Q  -1.3290  9.96$  20.01$  7.59$
|556>   Q  0.6645  11.39$  11.5$  2.79$
|557>   Q  0.6645  9.98$  12.18$  3.12$
|558>   Q  -1.3290  10.6$  11.85$  2.6$
|559>   Q  0.6645  10.11$  20.56$  10.45$
|560>   Q  0.6645  8.7$  19.96$  10.49$
|561>   Q  -1.3290  9.31$  20.42$  10.17$
|562>   Q  0.6645  2.2$  12.13$  8.46$
|563>   Q  0.6645  0.68$  12.05$  8.19$
|564>   Q  -1.3290  1.45$  11.77$  8.43$
|565>   Q  0.6645  3.17$  9$  17.27$
|566>   Q  0.6645  3.8$  7.74$  17.08$
|567>   Q  -1.3290  3.82$  8.52$  17.29$
|568>   Q  0.6645  19.81$  16.62$  6.54$
|569>   Q  0.6645  18.84$  15.57$  7.01$
|570>   Q  -1.3290  19.08$  16.24$  6.56$
|571>   Q  0.6645  11.45$  3.94$  4.68$
|572>   Q  0.6645  9.96$  3.81$  4.49$
|573>   Q  -1.3290  10.66$  4.02$  4.89$
|574>   Q  0.6645  8.45$  16.49$  8.6$
|575>   Q  0.6645  9.05$  17.86$  8.12$
|576>   Q  -1.3290  8.48$  17.23$  8.12$
|577>   Q  0.6645  12.34$  5.72$  2.57$
|578>   Q  0.6645  12.78$  6.08$  1.14$
|579>   Q  -1.3290  12.28$  6.08$  1.81$
|580>   Q  0.6645  20.35$  3.08$  13.03$
|581>   Q  0.6645  19.48$  4.35$  13.2$
|582>   Q  -1.3290  19.65$  3.51$  12.99$
|583>   Q  0.6645  11.57$  16.65$  16.59$
|584>   Q  0.6645  11.86$  17.11$  18.07$
|585>   Q  -1.3290  11.73$  17.18$  17.22$
|586>   Q  0.6645  13.94$  15.99$  8.91$
|587>   Q  0.6645  14.48$  16.4$  7.61$
|588>   Q  -1.3290  14.47$  16.41$  8.44$
|589>   Q  0.6645  12.45$  15.01$  21.52$
|590>   Q  0.6645  13.96$  15.25$  21.62$
|591>   Q  -1.3290  13.15$  15.45$  21.65$
|592>   Q  0.6645  3.08$  12.6$  6.39$
|593>   Q  0.6645  2.79$  13.57$  5.11$
|594>   Q  -1.3290  2.87$  13.34$  5.97$
|595>   Q  0.6645  15.31$  14.26$  18.68$
|596>   Q  0.6645  16.49$  13.43$  19.28$
|597>   Q  -1.3290  15.82$  13.57$  18.76$
|598>   Q  0.6645  10.86$  16.12$  7.16$
|599>   Q  0.6645  11.32$  16.59$  8.65$
|600>   Q  -1.3290  10.88$  16.09$  8.04$
|601>   Q  0.6645  6.45$  1.71$  6.73$
|602>   Q  0.6645  5.78$  1.08$  5.56$
|603>   Q  -1.3290  6.37$  1.14$  6.12$
|604>   Q  0.6645  16.5$  18.89$  16.75$
|605>   Q  0.6645  16.19$  19.48$  15.44$
|606>   Q  -1.3290  16.33$  19.51$  16.25$
|607>   Q  0.6645  2.7$  8.5$  3.47$
|608>   Q  0.6645  3.95$  8.5$  2.86$
|609>   Q  -1.3290  3.46$  8.32$  3.52$
|610>   Q  0.6645  2.82$  14.55$  18.78$
|611>   Q  0.6645  4.19$  14.01$  18.25$
|612>   Q  -1.3290  3.42$  13.98$  18.64$
|613>   Q  0.6645  17.34$  8.59$  8.79$
|614>   Q  0.6645  18.59$  8.6$  9.73$
|615>   Q  -1.3290  17.81$  8.37$  9.45$
|616>   Q  0.6645  14.75$  14.46$  6.03$
|617>   Q  0.6645  15.4$  13.26$  5.38$
|618>   Q  -1.3290  15.39$  13.95$  5.84$
|619>   Q  0.6645  1.12$  17.14$  11.26$
|620>   Q  0.6645  2.35$  16.11$  11.56$
|621>   Q  -1.3290  1.65$  16.44$  11.12$
|622>   Q  0.6645  13.05$  7.22$  13.49$
|623>   Q  0.6645  12.42$  5.96$  14.2$
|624>   Q  -1.3290  12.82$  6.38$  13.53$
|625>   Q  0.6645  5.61$  9.12$  16.21$
|626>   Q  0.6645  6.12$  10.25$  15.46$
|627>   Q  -1.3290  6.06$  9.46$  15.62$
|628>   Q  0.6645  10.95$  14.35$  16.94$
|629>   Q  0.6645  10.48$  14.77$  18.36$
|630>   Q  -1.3290  10.99$  14.4$  17.79$
|631>   Q  0.6645  11.98$  19.48$  5.34$
|632>   Q  0.6645  11.56$  19.67$  3.88$
|633>   Q  -1.3290  11.77$  19.24$  4.56$
|634>   Q  0.6645  13.52$  3.01$  7.34$
|635>   Q  0.6645  13.99$  1.83$  6.4$
|636>   Q  -1.3290  13.5$  2.47$  6.66$
|637>   Q  0.6645  15.73$  11.38$  1.84$
|638>   Q  0.6645  14.28$  10.66$  1.52$
|639>   Q  -1.3290  14.87$  11.29$  1.69$
|640>   Q  0.6645  6.07$  14.38$  20.76$
|641>   Q  0.6645  4.83$  13.48$  20.54$
|642>   Q  -1.3290  5.62$  13.65$  20.78$
|643>   Q  0.6645  15.41$  0.21$  6.36$
|644>   Q  0.6645  15.69$  1.05$  5.04$
|645>   Q  -1.3290  15.22$  0.67$  5.68$
|646>   Q  0.6645  8.15$  20.78$  17.24$
|647>   Q  0.6645  9.31$  21.76$  17.61$
|648>   Q  -1.3290  8.48$  21.49$  17.6$
|649>   Q  0.6645  10.62$  2.6$  14.24$
|650>   Q  0.6645  12.13$  2.45$  14.19$
|651>   Q  -1.3290  11.38$  2.54$  14.56$
|652>   Q  0.6645  11.41$  18.62$  20.01$
|653>   Q  0.6645  12$  17.49$  20.86$
|654>   Q  -1.3290  11.59$  17.81$  20.21$
|655>   Q  0.6645  18.38$  9.32$  13.22$
|656>   Q  0.6645  17.31$  10.2$  13.98$
|657>   Q  -1.3290  17.6$  9.5$  13.55$
|658>   Q  0.6645  11.01$  14.27$  2.69$
|659>   Q  0.6645  9.67$  14.39$  1.99$
|660>   Q  -1.3290  10.35$  14.69$  2.39$
|661> *
|662> 
|663>                          ****END OF INPUT****
================================================================================

                     *******************************
                     * Energy+Gradient Calculation *
                     *******************************

---------------------------------
CARTESIAN COORDINATES (ANGSTROEM)
---------------------------------
  C     11.360000    9.000000   10.040000
  H     10.600000    8.210000   10.260000
  H     12.260000    8.860000   10.580000
  C     10.900000   10.480000   10.190000
  H     11.730000   11.070000    9.820000
  H     10.090000   10.630000    9.460000
  C     10.510000   10.970000   11.570000
  H     10.780000   10.300000   12.430000
  H      9.450000   10.850000   11.620000
  C     10.820000   12.450000   11.740000
  H     10.140000   12.980000   11.000000
  H     11.800000   12.720000   11.460000
  O     10.490000   12.950000   13.060000
  H     10.980000   13.790000   13.140000
  O     11.600000    8.840000    8.660000
  H     11.780000    7.920000    8.570000
  O     12.410000   15.400000   12.390000
  H     13.240000   15.800000   12.600000
  H     12.600000   14.740000   11.730000
  O     13.720000   11.430000   12.390000
  H     13.860000   12.170000   12.990000
  H     14.620000   11.200000   12.020000
  O      8.020000   10.840000    7.000000
  H      8.970000   10.520000    6.890000
  H      8.090000   11.800000    7.130000
  O      7.360000    8.980000   11.960000
  H      7.050000    9.790000   12.390000
  H      7.600000    8.370000   12.660000
  O      8.500000   12.230000   14.760000
  H      8.810000   11.510000   15.320000
  H      9.190000   12.340000   14.040000
  O      6.300000   10.350000    4.990000
  H      6.530000    9.770000    4.280000
  H      7.030000   10.430000    5.640000
  O      8.780000   15.530000   10.270000
  H      9.600000   15.190000    9.860000
  H      8.290000   14.870000   10.750000
  O      7.300000   13.550000   10.650000
  H      6.540000   13.610000    9.930000
  H      7.020000   12.720000   11.080000
  O     10.220000    5.590000   12.440000
  H     11.140000    5.910000   12.550000
  H     10.000000    5.570000   11.480000
  O      4.770000    7.810000   11.190000
  H      5.680000    8.210000   11.390000
  H      4.450000    8.190000   10.330000
  O     15.350000   16.520000   13.450000
  H     16.280000   16.190000   13.400000
  H     15.110000   16.020000   14.290000
  O      9.540000   10.110000   16.740000
  H     10.180000   10.550000   17.330000
  H      9.960000    9.540000   16.080000
  O     14.040000   12.550000   15.230000
  H     13.470000   12.050000   15.830000
  H     14.950000   12.210000   15.220000
  O      7.230000   11.490000   17.910000
  H      7.700000   11.000000   17.180000
  H      7.970000   11.770000   18.460000
  O      8.750000   13.480000    6.800000
  H      8.030000   14.070000    6.840000
  H      8.890000   13.310000    5.870000
  O     11.260000   15.620000   15.160000
  H     12.170000   15.360000   15.030000
  H     11.100000   15.870000   14.260000
  O      6.540000   11.450000   12.760000
  H      7.180000   12.030000   13.270000
  H      5.730000   11.490000   13.290000
  O     12.870000   14.180000    9.810000
  H     13.590000   13.530000    9.660000
  H     12.230000   13.970000    9.140000
  O     13.060000    8.970000   13.750000
  H     13.160000    9.810000   13.270000
  H     13.820000    8.900000   14.340000
  O     12.150000   17.280000   10.280000
  H     12.310000   16.580000   10.970000
  H     12.710000   18.070000   10.510000
  O     10.540000    8.180000   15.220000
  H     11.230000    8.550000   14.640000
  H     10.570000    7.240000   15.200000
  O      7.000000    9.100000    9.050000
  H      7.410000    9.000000    9.930000
  H      7.560000    9.780000    8.610000
  O     15.320000   12.690000    9.290000
  H     16.060000   13.280000    9.060000
  H     15.700000   12.000000    9.940000
  O     12.200000    6.160000    8.250000
  H     11.920000    6.240000    7.360000
  H     11.470000    5.730000    8.700000
  O     10.560000   17.690000   13.060000
  H      9.720000   17.840000   12.680000
  H     11.180000   17.600000   12.290000
  O      8.340000   12.470000    4.130000
  H      7.630000   13.020000    3.770000
  H      7.930000   11.750000    4.620000
  O      7.460000   14.930000   14.970000
  H      7.600000   15.410000   15.750000
  H      8.090000   14.290000   14.920000
  O      8.150000    7.120000   13.630000
  H      8.810000    6.610000   13.180000
  H      8.590000    7.650000   14.280000
  O      9.880000    5.420000    9.600000
  H      9.930000    4.470000    9.370000
  H      9.190000    5.880000    9.050000
  O     16.600000   11.250000   11.470000
  H     17.130000   11.740000   12.130000
  H     16.610000   10.300000   11.770000
  O      8.870000    9.070000    4.510000
  H      9.590000    9.280000    5.090000
  H      9.080000    9.280000    3.600000
  O     10.930000   10.280000    6.580000
  H     11.400000   11.120000    6.660000
  H     11.400000    9.790000    7.320000
  Q     19.950000   12.170000   10.170000
  Q     19.700000   12.590000   11.600000
  Q     20.180000   12.520000   10.900000
  Q      4.390000   13.680000    8.880000
  Q      5.250000   13.540000    7.590000
  Q      4.970000   13.340000    8.400000
  Q     18.900000    6.370000    7.060000
  Q     18.400000    6.870000    8.440000
  Q     18.770000    6.330000    7.890000
  Q     13.910000   16.430000    3.740000
  Q     13.250000   17.840000    3.790000
  Q     13.820000   17.240000    3.550000
  Q     16.380000   10.110000   18.560000
  Q     15.330000    9.220000   18.130000
  Q     15.620000    9.920000   18.330000
  Q     18.080000   11.220000    9.890000
  Q     19.080000   10.570000    8.860000
  Q     18.540000   11.170000    9.160000
  Q     15.870000    4.340000   15.700000
  Q     16.430000    4.980000   16.960000
  Q     15.940000    4.480000   16.540000
  Q     10.320000   14.920000   20.430000
  Q     10.340000   16.370000   19.990000
  Q     10.010000   15.600000   20.070000
  Q     12.230000    1.090000    6.440000
  Q     11.510000   -0.260000    6.830000
  Q     11.770000    0.380000    6.340000
  Q      8.640000    6.880000    2.000000
  Q     10.150000    6.740000    1.730000
  Q      9.380000    7.050000    1.590000
  Q     11.940000   13.600000    6.760000
  Q     10.710000   13.360000    7.550000
  Q     11.520000   13.220000    7.310000
  Q      6.260000    2.970000   16.370000
  Q      6.120000    4.480000   16.710000
  Q      5.850000    3.710000   16.600000
  Q     13.460000   11.440000    4.570000
  Q     12.380000   12.480000    4.900000
  Q     12.690000   11.750000    4.590000
  Q      8.750000    2.850000    7.430000
  Q      9.940000    3.000000    6.670000
  Q      9.510000    2.670000    7.250000
  Q     14.010000    3.920000   17.550000
  Q     12.610000    3.570000   18.280000
  Q     13.470000    3.530000   18.120000
  Q     17.580000   11.780000    2.950000
  Q     18.330000   11.910000    1.680000
  Q     17.700000   11.670000    2.150000
  Q     13.390000   15.830000   19.420000
  Q     12.760000   14.860000   18.490000
  Q     13.420000   15.170000   18.890000
  Q     16.740000    3.010000    4.700000
  Q     17.800000    1.860000    4.350000
  Q     17.050000    2.290000    4.320000
  Q      8.810000    8.630000   17.840000
  Q      8.390000    7.720000   18.890000
  Q      8.610000    7.910000   18.150000
  Q      5.470000   14.040000    3.050000
  Q      5.520000   12.550000    3.340000
  Q      5.640000   13.360000    3.520000
  Q      7.020000   16.480000   20.790000
  Q      8.090000   15.830000   19.970000
  Q      7.300000   15.920000   20.220000
  Q     16.710000    3.770000    7.400000
  Q     17.810000    4.610000    7.980000
  Q     17.400000    3.900000    7.850000
  Q      7.560000    7.610000    7.810000
  Q      7.320000    6.320000    6.950000
  Q      7.740000    6.930000    7.310000
  Q      5.550000   17.630000    9.460000
  Q      6.580000   17.970000    8.360000
  Q      5.820000   17.980000    8.750000
  Q     16.700000   15.390000    4.700000
  Q     18.110000   15.930000    4.750000
  Q     17.440000   15.560000    4.400000
  Q     17.880000   13.080000    8.000000
  Q     16.870000   13.850000    7.040000
  Q     17.520000   13.780000    7.620000
  Q     18.180000   15.570000   11.990000
  Q     18.990000   15.530000   13.350000
  Q     18.310000   15.560000   12.860000
  Q      7.200000    6.460000   15.480000
  Q      7.460000    6.570000   17.000000
  Q      7.230000    6.190000   16.300000
  Q     10.210000    2.330000    8.870000
  Q      9.660000    2.430000   10.400000
  Q     10.210000    2.550000    9.730000
  Q      1.870000    6.060000   15.120000
  Q      3.000000    7.050000   15.050000
  Q      2.600000    6.380000   15.370000
  Q     19.550000    7.670000   12.470000
  Q     20.830000    8.570000   12.490000
  Q     19.990000    8.370000   12.340000
  Q      6.160000    8.250000    2.350000
  Q      6.050000    9.220000    1.350000
  Q      5.910000    8.960000    2.090000
  Q     13.250000   14.400000    1.760000
  Q     13.860000   13.080000    2.430000
  Q     13.420000   13.830000    2.390000
  Q     11.990000    6.930000   18.410000
  Q     10.460000    6.990000   18.360000
  Q     11.220000    6.660000   18.230000
  Q      5.480000   10.030000    8.870000
  Q      4.840000   11.390000    9.130000
  Q      4.840000   10.530000    9.030000
  Q      7.790000    7.050000    4.060000
  Q      6.760000    6.130000    3.670000
  Q      7.240000    6.770000    3.520000
  Q     19.010000   10.870000    5.380000
  Q     18.180000    9.850000    4.680000
  Q     18.300000   10.530000    5.120000
  Q     18.200000   18.900000   10.710000
  Q     18.190000   17.560000   10.050000
  Q     18.540000   18.210000   10.420000
  Q     17.610000   15.480000    9.270000
  Q     16.190000   15.970000    9.590000
  Q     17.000000   15.710000    9.790000
  Q     10.540000    1.820000    2.140000
  Q      9.300000    2.740000    2.390000
  Q      9.980000    2.440000    1.980000
  Q      1.650000    9.620000   15.350000
  Q      2.900000    9.880000   14.660000
  Q      2.350000   10.040000   15.260000
  Q      6.660000   17.360000   16.730000
  Q      6.950000   16.560000   18.170000
  Q      7.100000   16.930000   17.340000
  Q     13.110000    2.310000   11.680000
  Q     12.020000    2.480000   10.530000
  Q     12.810000    2.300000   10.880000
  Q     12.820000   19.840000   11.720000
  Q     14.180000   19.280000   12.270000
  Q     13.520000   19.350000   11.710000
  Q     13.970000   10.680000   21.000000
  Q     12.820000    9.720000   21.460000
  Q     13.620000    9.930000   21.180000
  Q      2.710000   15.010000   10.110000
  Q      2.050000   13.740000   10.110000
  Q      2.630000   14.270000    9.830000
  Q      9.860000    3.690000   17.820000
  Q     10.620000    4.750000   18.760000
  Q     10.420000    3.970000   18.410000
  Q     15.800000    5.910000    2.840000
  Q     15.100000    7.310000    3.040000
  Q     15.660000    6.660000    3.170000
  Q      2.050000    9.830000    5.520000
  Q      1.120000    8.850000    4.880000
  Q      1.300000    9.550000    5.280000
  Q     17.510000    7.960000    3.140000
  Q     17.370000    9.320000    2.530000
  Q     17.780000    8.680000    2.880000
  Q     14.420000   12.960000   20.080000
  Q     14.500000   12.620000   21.750000
  Q     14.140000   12.720000   20.900000
  Q     15.540000    6.850000   14.460000
  Q     16.210000    8.230000   14.280000
  Q     15.640000    7.670000   14.590000
  Q     15.540000    5.000000    5.990000
  Q     14.820000    3.700000    5.970000
  Q     15.480000    4.220000    5.820000
  Q      6.340000   14.280000   16.620000
  Q      6.420000   13.300000   17.690000
  Q      6.000000   13.800000   17.160000
  Q      6.960000    4.320000    5.170000
  Q      5.560000    4.800000    5.640000
  Q      6.440000    4.780000    5.640000
  Q     13.510000    8.190000   19.940000
  Q     14.140000    7.190000   18.880000
  Q     13.540000    7.520000   19.410000
  Q      5.830000    3.670000   11.070000
  Q      5.120000    2.220000   10.840000
  Q      5.760000    2.830000   10.850000
  Q     11.270000    4.400000   15.540000
  Q     11.550000    5.730000   16.450000
  Q     11.490000    5.220000   15.750000
  Q     17.320000    5.240000   11.240000
  Q     17.170000    6.800000   11.020000
  Q     17.200000    6.070000   11.440000
  Q      8.750000   18.610000   17.020000
  Q     10.280000   18.370000   17.420000
  Q      9.560000   18.820000   17.260000
  Q      4.760000   18.200000   16.130000
  Q      4.130000   17.310000   15.080000
  Q      4.770000   17.590000   15.530000
  Q     14.540000    2.860000   13.610000
  Q     14.170000    1.380000   13.490000
  Q     14.030000    2.210000   13.450000
  Q      4.220000    8.030000    5.960000
  Q      3.840000    7.640000    7.330000
  Q      4.060000    7.490000    6.540000
  Q     10.780000   19.030000   14.200000
  Q     10.310000   19.830000   15.500000
  Q     10.640000   19.730000   14.720000
  Q      7.550000    0.980000   16.290000
  Q      7.530000    1.280000   14.860000
  Q      7.210000    1.330000   15.660000
  Q      5.430000    5.940000   11.800000
  Q      5.350000    4.820000   12.850000
  Q      5.440000    5.160000   12.070000
  Q      3.800000   14.780000   12.960000
  Q      2.490000   14.050000   12.480000
  Q      2.970000   14.720000   12.720000
  Q     12.960000    7.830000    2.190000
  Q     13.030000    8.520000    3.680000
  Q     13.250000    8.370000    2.840000
  Q      7.270000    3.260000    3.250000
  Q      8.140000    2.290000    4.180000
  Q      7.940000    3.050000    3.760000
  Q      7.290000   20.610000   12.880000
  Q      8.650000   20.210000   13.640000
  Q      8.000000   20.690000   13.360000
  Q      4.260000    8.040000   13.050000
  Q      4.820000    8.470000   14.380000
  Q      4.230000    8.200000   13.870000
  Q      1.200000    8.830000   11.520000
  Q      1.020000    7.220000   11.710000
  Q      0.980000    8.050000   11.940000
  Q     16.930000    3.400000    2.230000
  Q     15.500000    3.490000    1.690000
  Q     16.210000    3.810000    2.060000
  Q      4.130000   17.540000   11.330000
  Q      5.280000   16.550000   11.620000
  Q      4.660000   16.900000   11.160000
  Q     13.480000    4.910000    8.860000
  Q     13.450000    3.460000    9.370000
  Q     13.680000    4.110000    8.850000
  Q     11.400000   14.960000    4.920000
  Q     12.550000   14.390000    4.200000
  Q     12.020000   14.440000    4.820000
  Q      4.560000   10.460000    5.910000
  Q      3.840000   10.170000    7.300000
  Q      3.890000   10.310000    6.450000
  Q      8.130000   16.460000    6.040000
  Q      7.610000   15.550000    4.990000
  Q      8.040000   16.200000    5.270000
  Q     15.210000    6.800000    4.910000
  Q     14.370000    7.260000    6.080000
  Q     15.080000    7.000000    5.690000
  Q     19.050000    6.470000    4.430000
  Q     20.140000    7.350000    5.000000
  Q     19.370000    7.010000    4.980000
  Q      9.810000   16.620000    5.110000
  Q     10.940000   17.480000    5.110000
  Q     10.590000   16.790000    5.310000
  Q     17.180000   13.650000   17.300000
  Q     18.590000   13.940000   16.810000
  Q     17.890000   13.470000   16.950000
  Q      9.630000    6.850000    6.200000
  Q     10.560000    5.680000    5.800000
  Q     10.370000    6.470000    6.020000
  Q      8.440000    3.200000   15.720000
  Q      8.510000    4.590000   16.290000
  Q      8.640000    3.750000   16.280000
  Q      7.050000   20.640000    6.240000
  Q      7.430000   19.510000    5.270000
  Q      7.540000   20.040000    5.920000
  Q     11.860000   19.190000    7.480000
  Q     13.420000   19.170000    7.920000
  Q     12.710000   19.310000    7.420000
  Q     20.850000    9.070000   10.160000
  Q     21.030000    8.950000    8.630000
  Q     20.640000    9.190000    9.360000
  Q     13.870000   14.210000   15.630000
  Q     14.110000   15.250000   16.640000
  Q     14.040000   14.990000   15.870000
  Q     18.900000    8.180000   15.850000
  Q     19.030000    7.030000   16.700000
  Q     19.200000    7.420000   16.030000
  Q      7.240000   17.600000    3.920000
  Q      6.040000   18.050000    4.710000
  Q      6.610000   18.110000    4.120000
  Q     14.740000   18.220000    8.980000
  Q     14.570000   19.420000    9.950000
  Q     14.770000   19.040000    9.230000
  Q      5.340000   12.530000   15.770000
  Q      4.110000   11.790000   15.490000
  Q      4.920000   11.950000   15.380000
  Q     14.200000   16.960000    5.750000
  Q     12.860000   16.220000    5.680000
  Q     13.660000   16.360000    5.940000
  Q     10.580000   11.750000   19.660000
  Q     10.800000   12.510000   18.470000
  Q     10.550000   11.850000   18.840000
  Q     13.880000   11.250000   17.700000
  Q     12.310000   11.090000   18.100000
  Q     13.010000   11.200000   17.580000
  Q     14.460000   19.450000    6.230000
  Q     15.230000   19.380000    4.890000
  Q     15.010000   19.130000    5.670000
  Q     17.670000    3.170000   10.000000
  Q     18.310000    3.140000   11.250000
  Q     17.650000    3.170000   10.800000
  Q     11.610000    7.690000    5.310000
  Q     12.270000    8.960000    5.730000
  Q     12.300000    8.180000    5.440000
  Q     15.010000    7.390000   16.670000
  Q     16.150000    7.040000   17.690000
  Q     15.360000    7.250000   17.460000
  Q      3.000000    6.840000    9.160000
  Q      2.300000    8.210000    8.660000
  Q      2.980000    7.680000    8.940000
  Q      8.420000   17.530000   10.710000
  Q      7.520000   18.010000   11.920000
  Q      8.190000   18.040000   11.370000
  Q      3.460000    3.800000   10.140000
  Q      3.850000    5.100000   10.950000
  Q      3.370000    4.600000   10.440000
  Q      3.590000    4.870000   14.530000
  Q      4.750000    3.870000   15.050000
  Q      4.150000    4.220000   14.480000
  Q      5.310000   18.380000   12.590000
  Q      6.060000   18.320000   13.930000
  Q      5.990000   18.360000   13.100000
  Q      6.440000    3.920000    7.440000
  Q      6.160000    3.120000    8.840000
  Q      6.460000    3.240000    8.030000
  Q     19.040000    6.340000   14.450000
  Q     18.150000    6.250000   13.170000
  Q     18.840000    6.110000   13.670000
  Q     15.460000    0.880000   14.740000
  Q     15.490000   -0.370000   13.650000
  Q     15.790000    0.340000   14.080000
  Q     17.530000    9.490000    6.720000
  Q     16.330000    8.730000    6.570000
  Q     16.860000    9.130000    7.020000
  Q     11.290000   21.450000   12.500000
  Q     11.660000   22.420000   11.340000
  Q     11.510000   21.670000   11.730000
  Q      4.700000   18.360000    6.990000
  Q      3.620000   18.880000    6.080000
  Q      4.310000   18.450000    6.260000
  Q      1.620000   11.640000   11.560000
  Q      0.280000   12.370000   11.490000
  Q      1.120000   12.300000   11.670000
  Q     15.720000   18.350000   13.450000
  Q     16.480000   19.610000   12.760000
  Q     15.930000   19.180000   13.290000
  Q     15.140000   10.160000    7.480000
  Q     14.700000   11.510000    7.920000
  Q     14.650000   10.830000    7.440000
  Q      6.210000   20.220000   15.970000
  Q      7.270000   19.870000   14.990000
  Q      6.900000   19.830000   15.720000
  Q      5.750000   13.950000    5.540000
  Q      5.320000   15.240000    6.260000
  Q      5.810000   14.550000    6.100000
  Q      2.710000    9.480000   10.430000
  Q      1.570000   10.440000    9.970000
  Q      2.010000    9.970000   10.510000
  Q      4.900000    9.510000   18.870000
  Q      5.860000   10.720000   18.800000
  Q      5.290000   10.190000   19.180000
  Q      6.140000   14.810000   13.710000
  Q      6.180000   14.260000   12.320000
  Q      5.810000   14.630000   12.970000
  Q      9.320000    4.030000   13.400000
  Q      8.670000    2.750000   13.010000
  Q      9.070000    3.260000   13.530000
  Q     10.630000    8.710000    0.580000
  Q     11.130000   10.000000    1.130000
  Q     11.160000    9.340000    0.630000
  Q     11.280000   12.730000   22.400000
  Q     12.320000   12.960000   21.240000
  Q     11.580000   13.060000   21.640000
  Q     17.970000   13.500000   13.200000
  Q     18.920000   12.390000   13.750000
  Q     18.240000   12.730000   13.340000
  Q     19.400000    4.090000    4.950000
  Q     19.040000    3.530000    6.350000
  Q     19.520000    3.630000    5.650000
  Q      7.340000   21.200000    9.210000
  Q      6.160000   20.170000    8.960000
  Q      6.510000   20.930000    9.090000
  Q      7.290000    1.710000   11.720000
  Q      8.380000    0.750000   12.060000
  Q      8.080000    1.480000   11.820000
  Q     12.550000    0.620000    3.420000
  Q     13.450000    0.940000    4.510000
  Q     13.240000    0.920000    3.730000
  Q      7.260000   12.340000   20.650000
  Q      7.760000   10.980000   21.110000
  Q      7.830000   11.800000   20.920000
  Q      5.750000   21.520000   10.750000
  Q      5.270000   20.610000   11.870000
  Q      5.590000   21.300000   11.550000
  Q     12.460000   20.810000   14.340000
  Q     13.750000   21.400000   15.080000
  Q     13.260000   21.140000   14.430000
  Q      9.750000    0.870000    5.430000
  Q      8.610000   -0.030000    4.750000
  Q      9.250000    0.560000    4.790000
  Q     13.880000    4.450000    4.350000
  Q     13.310000    3.730000    3.090000
  Q     13.340000    4.310000    3.690000
  Q     16.040000    1.690000   10.650000
  Q     14.900000    0.770000   10.320000
  Q     15.700000    0.940000   10.470000
  Q     12.650000    4.190000   -0.040000
  Q     11.510000    3.850000    0.850000
  Q     12.030000    3.700000    0.210000
  Q      2.170000   16.160000   14.240000
  Q      1.860000   17.510000   14.710000
  Q      2.140000   16.750000   14.820000
  Q     11.980000   20.460000   17.890000
  Q     12.810000   19.180000   17.620000
  Q     12.670000   19.960000   17.880000
  Q     15.760000    4.960000   12.680000
  Q     14.420000    5.420000   13.350000
  Q     15.180000    5.040000   13.320000
  Q     15.090000   11.210000    5.710000
  Q     16.320000   11.150000    5.000000
  Q     15.580000   11.410000    5.100000
  Q     17.170000   12.190000   15.870000
  Q     16.250000   10.990000   16.210000
  Q     16.660000   11.500000   15.700000
  Q      9.950000   20.160000    8.370000
  Q      9.370000   20.240000    7.080000
  Q      9.960000   20.010000    7.590000
  Q     11.390000   11.500000    2.790000
  Q      9.980000   12.180000    3.120000
  Q     10.600000   11.850000    2.600000
  Q     10.110000   20.560000   10.450000
  Q      8.700000   19.960000   10.490000
  Q      9.310000   20.420000   10.170000
  Q      2.200000   12.130000    8.460000
  Q      0.680000   12.050000    8.190000
  Q      1.450000   11.770000    8.430000
  Q      3.170000    9.000000   17.270000
  Q      3.800000    7.740000   17.080000
  Q      3.820000    8.520000   17.290000
  Q     19.810000   16.620000    6.540000
  Q     18.840000   15.570000    7.010000
  Q     19.080000   16.240000    6.560000
  Q     11.450000    3.940000    4.680000
  Q      9.960000    3.810000    4.490000
  Q     10.660000    4.020000    4.890000
  Q      8.450000   16.490000    8.600000
  Q      9.050000   17.860000    8.120000
  Q      8.480000   17.230000    8.120000
  Q     12.340000    5.720000    2.570000
  Q     12.780000    6.080000    1.140000
  Q     12.280000    6.080000    1.810000
  Q     20.350000    3.080000   13.030000
  Q     19.480000    4.350000   13.200000
  Q     19.650000    3.510000   12.990000
  Q     11.570000   16.650000   16.590000
  Q     11.860000   17.110000   18.070000
  Q     11.730000   17.180000   17.220000
  Q     13.940000   15.990000    8.910000
  Q     14.480000   16.400000    7.610000
  Q     14.470000   16.410000    8.440000
  Q     12.450000   15.010000   21.520000
  Q     13.960000   15.250000   21.620000
  Q     13.150000   15.450000   21.650000
  Q      3.080000   12.600000    6.390000
  Q      2.790000   13.570000    5.110000
  Q      2.870000   13.340000    5.970000
  Q     15.310000   14.260000   18.680000
  Q     16.490000   13.430000   19.280000
  Q     15.820000   13.570000   18.760000
  Q     10.860000   16.120000    7.160000
  Q     11.320000   16.590000    8.650000
  Q     10.880000   16.090000    8.040000
  Q      6.450000    1.710000    6.730000
  Q      5.780000    1.080000    5.560000
  Q      6.370000    1.140000    6.120000
  Q     16.500000   18.890000   16.750000
  Q     16.190000   19.480000   15.440000
  Q     16.330000   19.510000   16.250000
  Q      2.700000    8.500000    3.470000
  Q      3.950000    8.500000    2.860000
  Q      3.460000    8.320000    3.520000
  Q      2.820000   14.550000   18.780000
  Q      4.190000   14.010000   18.250000
  Q      3.420000   13.980000   18.640000
  Q     17.340000    8.590000    8.790000
  Q     18.590000    8.600000    9.730000
  Q     17.810000    8.370000    9.450000
  Q     14.750000   14.460000    6.030000
  Q     15.400000   13.260000    5.380000
  Q     15.390000   13.950000    5.840000
  Q      1.120000   17.140000   11.260000
  Q      2.350000   16.110000   11.560000
  Q      1.650000   16.440000   11.120000
  Q     13.050000    7.220000   13.490000
  Q     12.420000    5.960000   14.200000
  Q     12.820000    6.380000   13.530000
  Q      5.610000    9.120000   16.210000
  Q      6.120000   10.250000   15.460000
  Q      6.060000    9.460000   15.620000
  Q     10.950000   14.350000   16.940000
  Q     10.480000   14.770000   18.360000
  Q     10.990000   14.400000   17.790000
  Q     11.980000   19.480000    5.340000
  Q     11.560000   19.670000    3.880000
  Q     11.770000   19.240000    4.560000
  Q     13.520000    3.010000    7.340000
  Q     13.990000    1.830000    6.400000
  Q     13.500000    2.470000    6.660000
  Q     15.730000   11.380000    1.840000
  Q     14.280000   10.660000    1.520000
  Q     14.870000   11.290000    1.690000
  Q      6.070000   14.380000   20.760000
  Q      4.830000   13.480000   20.540000
  Q      5.620000   13.650000   20.780000
  Q     15.410000    0.210000    6.360000
  Q     15.690000    1.050000    5.040000
  Q     15.220000    0.670000    5.680000
  Q      8.150000   20.780000   17.240000
  Q      9.310000   21.760000   17.610000
  Q      8.480000   21.490000   17.600000
  Q     10.620000    2.600000   14.240000
  Q     12.130000    2.450000   14.190000
  Q     11.380000    2.540000   14.560000
  Q     11.410000   18.620000   20.010000
  Q     12.000000   17.490000   20.860000
  Q     11.590000   17.810000   20.210000
  Q     18.380000    9.320000   13.220000
  Q     17.310000   10.200000   13.980000
  Q     17.600000    9.500000   13.550000
  Q     11.010000   14.270000    2.690000
  Q      9.670000   14.390000    1.990000
  Q     10.350000   14.690000    2.390000

----------------------------
CARTESIAN COORDINATES (A.U.)
----------------------------
  NO LB      ZA    FRAG     MASS         X           Y           Z
   0 C     6.0000    0    12.011   21.467289   17.007535   18.972850
   1 H     1.0000    0     1.008   20.031097   15.514652   19.388590
   2 H     1.0000    0     1.008   23.168042   16.742974   19.993302
   3 C     6.0000    0    12.011   20.598015   19.804330   19.256309
   4 H     1.0000    0     1.008   22.166488   20.919268   18.557111
   5 H     1.0000    0     1.008   19.067337   20.087789   17.876809
   6 C     6.0000    0    12.011   19.861022   20.730296   21.864131
   7 H     1.0000    0     1.008   20.371248   19.464179   23.489296
   8 H     1.0000    0     1.008   17.857912   20.503529   21.958618
   9 C     6.0000    0    12.011   20.446837   23.527090   22.185385
  10 H     1.0000    0     1.008   19.161823   24.528645   20.786987
  11 H     1.0000    0     1.008   22.298768   24.037316   21.656261
  12 O     8.0000    0    15.999   19.823227   24.471953   24.679823
  13 H     1.0000    0     1.008   20.749193   26.059323   24.831001
  14 O     8.0000    0    15.999   21.920823   16.705179   16.365028
  15 H     1.0000    0     1.008   22.260974   14.966631   16.194953
  16 O     8.0000    0    15.999   23.451501   29.101782   23.413707
  17 H     1.0000    0     1.008   25.019974   29.857673   23.810549
  18 H     1.0000    0     1.008   23.810549   27.854563   22.166488
  19 O     8.0000    0    15.999   25.927043   21.599570   23.413707
  20 H     1.0000    0     1.008   26.191604   22.997967   24.547542
  21 H     1.0000    0     1.008   27.627796   21.164933   22.714508
  22 O     8.0000    0    15.999   15.155604   20.484631   13.228083
  23 H     1.0000    0     1.008   16.950843   19.879919   13.020213
  24 H     1.0000    0     1.008   15.287884   22.298768   13.473747
  25 O     8.0000    0    15.999   13.908384   16.969741   22.601125
  26 H     1.0000    0     1.008   13.322569   18.500419   23.413707
  27 H     1.0000    0     1.008   14.361919   15.817008   23.923933
  28 O     8.0000    0    15.999   16.062672   23.111351   27.892358
  29 H     1.0000    0     1.008   16.648487   21.750748   28.950604
  30 H     1.0000    0     1.008   17.366583   23.319220   26.531755
  31 O     8.0000    0    15.999   11.905275   19.558665    9.429733
  32 H     1.0000    0     1.008   12.339912   18.462624    8.088028
  33 H     1.0000    0     1.008   13.284775   19.709844   10.658055
  34 O     8.0000    0    15.999   16.591795   29.347447   19.407487
  35 H     1.0000    0     1.008   18.141371   28.704940   18.632700
  36 H     1.0000    0     1.008   15.665830   28.100228   20.314556
  37 O     8.0000    0    15.999   13.795001   25.605789   20.125583
  38 H     1.0000    0     1.008   12.358809   25.719173   18.764981
  39 H     1.0000    0     1.008   13.265877   24.037316   20.938166
  40 O     8.0000    0    15.999   19.313001   10.563569   23.508193
  41 H     1.0000    0     1.008   21.051549   11.168281   23.716063
  42 H     1.0000    0     1.008   18.897261   10.525775   21.694056
  43 O     8.0000    0    15.999    9.013994   14.758761   21.146035
  44 H     1.0000    0     1.008   10.733644   15.514652   21.523981
  45 H     1.0000    0     1.008    8.409281   15.476857   19.520871
  46 O     8.0000    0    15.999   29.007296   31.218276   25.416817
  47 H     1.0000    0     1.008   30.764741   30.594666   25.322330
  48 H     1.0000    0     1.008   28.553762   30.273413   27.004186
  49 O     8.0000    0    15.999   18.027987   19.105131   31.634015
  50 H     1.0000    0     1.008   19.237412   19.936611   32.748954
  51 H     1.0000    0     1.008   18.821672   18.027987   30.386796
  52 O     8.0000    0    15.999   26.531755   23.716063   28.780529
  53 H     1.0000    0     1.008   25.454611   22.771200   29.914365
  54 H     1.0000    0     1.008   28.251406   23.073556   28.761632
  55 O     8.0000    0    15.999   13.662720   21.712953   33.844995
  56 H     1.0000    0     1.008   14.550891   20.786987   32.465495
  57 H     1.0000    0     1.008   15.061117   22.242077   34.884344
  58 O     8.0000    0    15.999   16.535104   25.473508   12.850138
  59 H     1.0000    0     1.008   15.174501   26.588447   12.925727
  60 H     1.0000    0     1.008   16.799665   25.152255   11.092692
  61 O     8.0000    0    15.999   21.278316   29.517522   28.648248
  62 H     1.0000    0     1.008   22.997967   29.026193   28.402584
  63 H     1.0000    0     1.008   20.975960   29.989954   26.947495
  64 O     8.0000    0    15.999   12.358809   21.637364   24.112905
  65 H     1.0000    0     1.008   13.568234   22.733405   25.076666
  66 H     1.0000    0     1.008   10.828131   21.712953   25.114460
  67 O     8.0000    0    15.999   24.320775   26.796317   18.538213
  68 H     1.0000    0     1.008   25.681378   25.567995   18.254754
  69 H     1.0000    0     1.008   23.111351   26.399474   17.272097
  70 O     8.0000    0    15.999   24.679823   16.950843   25.983734
  71 H     1.0000    0     1.008   24.868796   18.538213   25.076666
  72 H     1.0000    0     1.008   26.116015   16.818563   27.098673
  73 O     8.0000    0    15.999   22.960173   32.654468   19.426385
  74 H     1.0000    0     1.008   23.262529   31.331659   20.730296
  75 H     1.0000    0     1.008   24.018419   34.147351   19.861022
  76 O     8.0000    0    15.999   19.917713   15.457960   28.761632
  77 H     1.0000    0     1.008   21.221624   16.157158   27.665591
  78 H     1.0000    0     1.008   19.974405   13.681617   28.723837
  79 O     8.0000    0    15.999   13.228083   17.196508   17.102022
  80 H     1.0000    0     1.008   14.002871   17.007535   18.764981
  81 H     1.0000    0     1.008   14.286330   18.481522   16.270542
  82 O     8.0000    0    15.999   28.950604   23.980625   17.555556
  83 H     1.0000    0     1.008   30.349002   25.095563   17.120919
  84 H     1.0000    0     1.008   29.668700   22.676714   18.783878
  85 O     8.0000    0    15.999   23.054659   11.640713   15.590241
  86 H     1.0000    0     1.008   22.525536   11.791891   13.908384
  87 H     1.0000    0     1.008   21.675159   10.828131   16.440617
  88 O     8.0000    0    15.999   19.955508   33.429255   24.679823
  89 H     1.0000    0     1.008   18.368138   33.712714   23.961727
  90 H     1.0000    0     1.008   21.127138   33.259180   23.224734
  91 O     8.0000    0    15.999   15.760316   23.564885    7.804569
  92 H     1.0000    0     1.008   14.418610   24.604234    7.124268
  93 H     1.0000    0     1.008   14.985528   22.204282    8.730535
  94 O     8.0000    0    15.999   14.097357   28.213611   28.289200
  95 H     1.0000    0     1.008   14.361919   29.120680   29.763187
  96 H     1.0000    0     1.008   15.287884   27.004186   28.194714
  97 O     8.0000    0    15.999   15.401268   13.454850   25.756967
  98 H     1.0000    0     1.008   16.648487   12.491090   24.906590
  99 H     1.0000    0     1.008   16.232747   14.456405   26.985289
 100 O     8.0000    0    15.999   18.670494   10.242316   18.141371
 101 H     1.0000    0     1.008   18.764981    8.447076   17.706734
 102 H     1.0000    0     1.008   17.366583   11.111590   17.102022
 103 O     8.0000    0    15.999   31.369454   21.259419   21.675159
 104 H     1.0000    0     1.008   32.371009   22.185385   22.922378
 105 H     1.0000    0     1.008   31.388351   19.464179   22.242077
 106 O     8.0000    0    15.999   16.761871   17.139816    8.522665
 107 H     1.0000    0     1.008   18.122474   17.536659    9.618706
 108 H     1.0000    0     1.008   17.158713   17.536659    6.803014
 109 O     8.0000    0    15.999   20.654707   19.426385   12.434398
 110 H     1.0000    0     1.008   21.542878   21.013755   12.585576
 111 H     1.0000    0     1.008   21.542878   18.500419   13.832795
 112 Q     0.6645    0     0.000   37.700036   22.997967   19.218515
 113 Q     0.6645    0     0.000   37.227605   23.791652   21.920823
 114 Q    -1.3290    0     0.000   38.134673   23.659371   20.598015
 115 Q     0.6645    0     0.000    8.295898   25.851454   16.780768
 116 Q     0.6645    0     0.000    9.921062   25.586892   14.343021
 117 Q    -1.3290    0     0.000    9.391939   25.208947   15.873700
 118 Q     0.6645    0     0.000   35.715824   12.037555   13.341467
 119 Q     0.6645    0     0.000   34.770961   12.982419   15.949289
 120 Q    -1.3290    0     0.000   35.470160   11.961966   14.909939
 121 Q     0.6645    0     0.000   26.286091   31.048200    7.067576
 122 Q     0.6645    0     0.000   25.038871   33.712714    7.162062
 123 Q    -1.3290    0     0.000   26.116015   32.578879    6.708528
 124 Q     0.6645    0     0.000   30.953714   19.105131   35.073317
 125 Q     0.6645    0     0.000   28.969502   17.423275   34.260735
 126 Q    -1.3290    0     0.000   29.517522   18.746083   34.638680
 127 Q     0.6645    0     0.000   34.166249   21.202727   18.689391
 128 Q     0.6645    0     0.000   36.055975   19.974405   16.742974
 129 Q    -1.3290    0     0.000   35.035523   21.108241   17.309891
 130 Q     0.6645    0     0.000   29.989954    8.201411   29.668700
 131 Q     0.6645    0     0.000   31.048200    9.410836   32.049755
 132 Q    -1.3290    0     0.000   30.122235    8.465973   31.256070
 133 Q     0.6645    0     0.000   19.501974   28.194714   38.607105
 134 Q     0.6645    0     0.000   19.539768   30.934817   37.775625
 135 Q    -1.3290    0     0.000   18.916159   29.479728   37.926804
 136 Q     0.6645    0     0.000   23.111351    2.059801   12.169836
 137 Q     0.6645    0     0.000   21.750748   -0.491329   12.906829
 138 Q    -1.3290    0     0.000   22.242077    0.718096   11.980864
 139 Q     0.6645    0     0.000   16.327234   13.001316    3.779452
 140 Q     0.6645    0     0.000   19.180720   12.736754    3.269226
 141 Q    -1.3290    0     0.000   17.725631   13.322569    3.004665
 142 Q     0.6645    0     0.000   22.563330   25.700275   12.774549
 143 Q     0.6645    0     0.000   20.238967   25.246741   14.267432
 144 Q    -1.3290    0     0.000   21.769645   24.982179   13.813898
 145 Q     0.6645    0     0.000   11.829686    5.612487   30.934817
 146 Q     0.6645    0     0.000   11.565124    8.465973   31.577324
 147 Q    -1.3290    0     0.000   11.054898    7.010884   31.369454
 148 Q     0.6645    0     0.000   25.435714   21.618467    8.636048
 149 Q     0.6645    0     0.000   23.394810   23.583782    9.259658
 150 Q    -1.3290    0     0.000   23.980625   22.204282    8.673843
 151 Q     0.6645    0     0.000   16.535104    5.385719   14.040665
 152 Q     0.6645    0     0.000   18.783878    5.669178   12.604473
 153 Q    -1.3290    0     0.000   17.971296    5.045569   13.700514
 154 Q     0.6645    0     0.000   26.475063    7.407726   33.164694
 155 Q     0.6645    0     0.000   23.829447    6.746322   34.544194
 156 Q    -1.3290    0     0.000   25.454611    6.670733   34.241838
 157 Q     0.6645    0     0.000   33.221385   22.260974    5.574692
 158 Q     0.6645    0     0.000   34.638680   22.506638    3.174740
 159 Q    -1.3290    0     0.000   33.448153   22.053104    4.062911
 160 Q     0.6645    0     0.000   25.303433   29.914365   36.698482
 161 Q     0.6645    0     0.000   24.112905   28.081330   34.941036
 162 Q    -1.3290    0     0.000   25.360125   28.667145   35.696927
 163 Q     0.6645    0     0.000   31.634015    5.688076    8.881713
 164 Q     0.6645    0     0.000   33.637125    3.514891    8.220309
 165 Q    -1.3290    0     0.000   32.219831    4.327473    8.163617
 166 Q     0.6645    0     0.000   16.648487   16.308337   33.712714
 167 Q     0.6645    0     0.000   15.854802   14.588686   35.696927
 168 Q    -1.3290    0     0.000   16.270542   14.947734   34.298529
 169 Q     0.6645    0     0.000   10.336802   26.531755    5.763665
 170 Q     0.6645    0     0.000   10.431288   23.716063    6.311685
 171 Q    -1.3290    0     0.000   10.658055   25.246741    6.651836
 172 Q     0.6645    0     0.000   13.265877   31.142687   39.287406
 173 Q     0.6645    0     0.000   15.287884   29.914365   37.737831
 174 Q    -1.3290    0     0.000   13.795001   30.084440   38.210262
 175 Q     0.6645    0     0.000   31.577324    7.124268   13.983973
 176 Q     0.6645    0     0.000   33.656022    8.711637   15.080015
 177 Q    -1.3290    0     0.000   32.881235    7.369932   14.834350
 178 Q     0.6645    0     0.000   14.286330   14.380816   14.758761
 179 Q     0.6645    0     0.000   13.832795   11.943069   13.133597
 180 Q    -1.3290    0     0.000   14.626480   13.095802   13.813898
 181 Q     0.6645    0     0.000   10.487980   33.315872   17.876809
 182 Q     0.6645    0     0.000   12.434398   33.958379   15.798110
 183 Q    -1.3290    0     0.000   10.998206   33.977276   16.535104
 184 Q     0.6645    0     0.000   31.558426   29.082885    8.881713
 185 Q     0.6645    0     0.000   34.222940   30.103337    8.976199
 186 Q    -1.3290    0     0.000   32.956824   29.404139    8.314795
 187 Q     0.6645    0     0.000   33.788303   24.717618   15.117809
 188 Q     0.6645    0     0.000   31.879680   26.172707   13.303672
 189 Q    -1.3290    0     0.000   33.108002   26.040426   14.399713
 190 Q     0.6645    0     0.000   34.355221   29.423036   22.657816
 191 Q     0.6645    0     0.000   35.885899   29.347447   25.227844
 192 Q    -1.3290    0     0.000   34.600886   29.404139   24.301878
 193 Q     0.6645    0     0.000   13.606028   12.207631   29.252961
 194 Q     0.6645    0     0.000   14.097357   12.415501   32.125344
 195 Q    -1.3290    0     0.000   13.662720   11.697405   30.802536
 196 Q     0.6645    0     0.000   19.294104    4.403062   16.761871
 197 Q     0.6645    0     0.000   18.254754    4.592035   19.653152
 198 Q    -1.3290    0     0.000   19.294104    4.818802   18.387035
 199 Q     0.6645    0     0.000    3.533788   11.451740   28.572659
 200 Q     0.6645    0     0.000    5.669178   13.322569   28.440378
 201 Q    -1.3290    0     0.000    4.913288   12.056453   29.045091
 202 Q     0.6645    0     0.000   36.944146   14.494199   23.564885
 203 Q     0.6645    0     0.000   39.362995   16.194953   23.602679
 204 Q    -1.3290    0     0.000   37.775625   15.817008   23.319220
[...]
 344   Q   :    0.027019103    0.077398396    0.280629320
 345   Q   :   -0.156677022   -0.240510620   -0.092642310
 346   Q   :    0.120604689    0.152351533   -0.193735166
 347   Q   :    0.026733909   -0.075406759   -0.280637744
 348   Q   :   -0.234057002    0.081742617    0.122173935
 349   Q   :    0.202596341   -0.003923499    0.172123550
 350   Q   :   -0.097802153   -0.201933945   -0.205977936
 351   Q   :    0.276228280    0.109562938   -0.004844940
 352   Q   :   -0.176913816    0.092767315    0.205014810
 353   Q   :   -0.263581373   -0.044338125   -0.075982302
 354   Q   :    0.123952438    0.266866181   -0.082477576
 355   Q   :    0.139509822   -0.213360803    0.154320120
 356   Q   :   -0.259269282    0.086214850    0.129879841
 357   Q   :    0.225842664    0.168066545   -0.042221919
 358   Q   :    0.048607642   -0.241915553   -0.083201663
 359   Q   :   -0.240842259    0.113818335    0.050311212
 360   Q   :    0.056649267   -0.257998999   -0.062572149
 361   Q   :    0.176473544    0.149532373    0.016833951
 362   Q   :   -0.087551269   -0.207033236   -0.225464101
 363   Q   :   -0.039710592    0.272395786   -0.008997436
 364   Q   :    0.126078068   -0.071615659    0.227222727
 365   Q   :   -0.184404630    0.213779558    0.105323242
 366   Q   :   -0.046825062   -0.166006663   -0.213791116
 367   Q   :    0.229239570   -0.044968991    0.108869669
 368   Q   :   -0.264118199   -0.052073587    0.025869824
 369   Q   :    0.198303112   -0.049675567    0.143277278
 370   Q   :    0.061792026    0.092197900   -0.168440022
 371   Q   :    0.089177487   -0.050132165    0.279049114
 372   Q   :    0.135531520   -0.081556282   -0.229630300
 373   Q   :   -0.207913661    0.129411527   -0.049314180
 374   Q   :   -0.067602454   -0.253680182   -0.063183513
 375   Q   :    0.027323776    0.083228670    0.300190437
 376   Q   :    0.038901879    0.179449032   -0.226960522
 377   Q   :   -0.119501186    0.266416634   -0.041007557
 378   Q   :   -0.093042196   -0.145625871    0.290419567
 379   Q   :    0.214657083   -0.113724464   -0.238434058
 380   Q   :    0.216409741   -0.186664610   -0.066418321
 381   Q   :   -0.198062850   -0.037110317    0.223719025
 382   Q   :   -0.020143437    0.219095572   -0.173283154
 383   Q   :   -0.021343639   -0.250255407   -0.064980022
 384   Q   :   -0.071155654    0.120957498    0.251061326
 385   Q   :    0.109282243    0.146368226   -0.182144308
 386   Q   :    0.145914616    0.215634824    0.143342049
 387   Q   :   -0.283027290   -0.042168276    0.045452259
 388   Q   :    0.130289997   -0.167623137   -0.191477716
 389   Q   :    0.182306662    0.204740892   -0.067730472
 390   Q   :   -0.259141955   -0.034760365   -0.095277621
 391   Q   :    0.063610320   -0.170155975    0.158022306
 392   Q   :    0.028810059   -0.024400343    0.292857033
 393   Q   :    0.110661549    0.260029950   -0.129071951
 394   Q   :   -0.144093226   -0.239129133   -0.151393554
 395   Q   :    0.258429161    0.023452875    0.037320755
 396   Q   :   -0.201352469   -0.033084281    0.166035890
 397   Q   :   -0.060338922    0.006165474   -0.199359338
 398   Q   :   -0.186543874    0.121003870    0.175855607
 399   Q   :    0.063566457    0.103890150   -0.268850293
 400   Q   :    0.132572271   -0.216491026    0.089822660
 401   Q   :    0.031720839    0.001739291   -0.310811931
 402   Q   :    0.273934288   -0.005472587    0.150287449
 403   Q   :   -0.301310100   -0.004081322    0.160052974
 404   Q   :   -0.218245507   -0.133386720   -0.047629241
 405   Q   :   -0.018035277    0.267757810    0.100720220
 406   Q   :    0.239786914   -0.130699769   -0.052528534
 407   Q   :   -0.092098295    0.044230838   -0.232817510
 408   Q   :    0.283706008   -0.068761058    0.066282888
 409   Q   :   -0.186859384    0.013631542    0.158751274
 410   Q   :   -0.006152277   -0.258412723    0.063511632
 411   Q   :   -0.190885387    0.134700967   -0.074965494
 412   Q   :    0.188419488    0.122122389    0.015018671
 413   Q   :    0.059092139   -0.155185719   -0.203498359
 414   Q   :   -0.205206975   -0.022608073    0.158137479
 415   Q   :    0.144486441    0.176870688    0.032749554
 416   Q   :    0.044530215   -0.274727598   -0.097735837
 417   Q   :    0.156101116    0.154972165    0.154054692
 418   Q   :   -0.205802301    0.115816217   -0.059541448
 419   Q   :   -0.177916851    0.210611713    0.012880281
 420   Q   :    0.163114077   -0.089067230    0.144483451
 421   Q   :    0.004437721   -0.130364892   -0.169676049
 422   Q   :   -0.247568281    0.010831471   -0.169152279
 423   Q   :    0.013261218   -0.004558812    0.283572706
 424   Q   :    0.228211078    0.000701117   -0.111516936
 425   Q   :   -0.011422171    0.187560801   -0.152551111
 426   Q   :   -0.101009018   -0.024675432    0.238121535
 427   Q   :    0.106016499   -0.159159160   -0.074438994
 428   Q   :    0.055199017    0.079962959    0.261433947
 429   Q   :   -0.211250929    0.059492936   -0.135675354
 430   Q   :    0.153308447   -0.138828912   -0.116696742
 431   Q   :   -0.112151985    0.140633817    0.173977181
 432   Q   :   -0.116052994   -0.216252196   -0.122978036
 433   Q   :    0.234039144    0.073642837   -0.055541855
 434   Q   :    0.245777518    0.120723438   -0.120899184
 435   Q   :   -0.200739881   -0.142385221   -0.188706701
 436   Q   :   -0.039555563    0.025602117    0.304146337
 437   Q   :   -0.078889322   -0.072069714    0.281824582
 438   Q   :    0.045412062    0.253066673   -0.118676324
 439   Q   :    0.036671794   -0.169783994   -0.160096799
 440   Q   :    0.122542993   -0.018473124    0.257505105
 441   Q   :   -0.254927888    0.164092406   -0.048641229
 442   Q   :    0.122463280   -0.140350155   -0.213441370
 443   Q   :    0.160759617   -0.229363621   -0.046247932
 444   Q   :   -0.274564519    0.009453925   -0.069437965
 445   Q   :    0.105064668    0.220786668    0.120643517
 446   Q   :   -0.053002122   -0.246787286    0.040317025
 447   Q   :    0.177593056    0.121557093   -0.173839974
 448   Q   :   -0.116329866    0.139034222    0.131060840
 449   Q   :    0.178162827   -0.232763764    0.021265009
 450   Q   :    0.028812829    0.223208464    0.168447472
 451   Q   :   -0.223081598    0.003916681   -0.179116489
 452   Q   :   -0.259422991    0.140972430    0.076616532
 453   Q   :    0.120599058    0.010155931   -0.271606631
 454   Q   :    0.132456527   -0.159830594    0.196104032
 455   Q   :   -0.027840508   -0.213523030   -0.198973054
 456   Q   :   -0.160968737    0.214749704    0.041163614
 457   Q   :    0.188201286    0.008403856    0.159274944
 458   Q   :    0.216995996   -0.159413285   -0.033306709
 459   Q   :   -0.148641214    0.149960288   -0.177584986
 460   Q   :   -0.058964411    0.008076843    0.210678439
 461   Q   :   -0.122538845   -0.235964646   -0.115561592
 462   Q   :    0.173702280    0.153318355   -0.127094749
 463   Q   :   -0.055972664    0.083802805    0.251663769
 464   Q   :    0.120678417    0.057384611    0.246903879
 465   Q   :    0.141751420   -0.129706937   -0.219680625
 466   Q   :   -0.259289151    0.065217675   -0.027206951
 467   Q   :    0.082440176    0.276722203   -0.059752719
 468   Q   :   -0.138614318   -0.165219932   -0.181393097
 469   Q   :    0.045132601   -0.098342606    0.248359152
 470   Q   :   -0.203063921   -0.224141213   -0.006929583
 471   Q   :   -0.024282978    0.232063673    0.193012174
 472   Q   :    0.232636022   -0.005843730   -0.188244222
 473   Q   :   -0.073154263   -0.107744503    0.232314227
 474   Q   :    0.236462881   -0.035694469   -0.120460917
 475   Q   :   -0.181039110    0.137461998   -0.101071639
 476   Q   :   -0.084517176    0.272407534   -0.046268337
 477   Q   :    0.225971040   -0.098652494    0.130068476
 478   Q   :   -0.138163829   -0.174281033   -0.070601739
 479   Q   :   -0.060240416    0.171230619   -0.245520504
 480   Q   :   -0.169300536   -0.021205830    0.216658110
 481   Q   :    0.234494477   -0.147435478    0.024774750
 482   Q   :    0.245043910    0.068709447    0.034892175
 483   Q   :   -0.108348093   -0.260405754   -0.039111635
 484   Q   :   -0.135846517    0.195791880   -0.006938271
 485   Q   :   -0.278041239    0.057043322   -0.017217088
 486   Q   :    0.095306387   -0.275874386    0.096733454
 487   Q   :    0.179573783    0.200932222   -0.081473585
 488   Q   :   -0.279787853   -0.117902515   -0.108858732
 489   Q   :    0.058275422    0.007314708    0.308941285
 490   Q   :    0.217489252    0.111825031   -0.200886874
 491   Q   :   -0.199600654    0.176268482   -0.106478962
 492   Q   :   -0.030932255   -0.290076350    0.062149597
 493   Q   :    0.238730927    0.109011125    0.044257532
 494   Q   :    0.040539179    0.058875757   -0.260892591
 495   Q   :   -0.125448571   -0.279901957    0.110398139
 496   Q   :    0.077603267    0.227259015    0.158831166
 497   Q   :   -0.249986771   -0.096311323   -0.023009640
 498   Q   :    0.154653202    0.089476904    0.230373602
 499   Q   :    0.103554306    0.013681852   -0.211512253
 500   Q   :    0.139196379    0.095844178    0.203353523
 501   Q   :   -0.204333692   -0.187513919   -0.005304081
 502   Q   :    0.066220073    0.083255500   -0.198296607
 503   Q   :    0.171187363    0.035172438    0.207788150
 504   Q   :   -0.003927430   -0.205708813   -0.214907610
 505   Q   :   -0.158847002    0.169348758    0.009802169
 506   Q   :    0.091163301    0.262992047    0.055963152
 507   Q   :   -0.298835909   -0.049547121   -0.055281665
 508   Q   :    0.205922028   -0.217772755   -0.002189815
 509   Q   :    0.235105618    0.203255352   -0.073122228
 510   Q   :   -0.160329678    0.077858594    0.230817391
 511   Q   :   -0.072242767   -0.277246875   -0.156649240
 512   Q   :    0.003942222   -0.183634077   -0.222445591
 513   Q   :   -0.104907336    0.296320239   -0.067722278
 514   Q   :    0.092238630   -0.111790589    0.296047103
 515   Q   :   -0.247641581    0.159601677    0.001833807
 516   Q   :    0.035636005   -0.283054414   -0.089028851
 517   Q   :    0.216944999    0.127958464    0.089436913
 518   Q   :    0.173037538   -0.021921272   -0.202384572
 519   Q   :   -0.230039771    0.125728886    0.003920105
 520   Q   :    0.068474824   -0.113335121    0.192003134
 521   Q   :   -0.173356885   -0.083826179    0.219254108
 522   Q   :    0.300281605   -0.119149795   -0.029827218
 523   Q   :   -0.123718713    0.193861480   -0.212818476
 524   Q   :    0.139524163    0.190473174    0.051279833
 525   Q   :   -0.147642973   -0.179569792    0.191624226
 526   Q   :    0.011081281   -0.016884343   -0.249630003
 527   Q   :   -0.013347539    0.064227348    0.307691583
 528   Q   :   -0.225975237    0.099186376   -0.169634205
 529   Q   :    0.244167453   -0.153784525   -0.145085933
 530   Q   :    0.225429919   -0.109518633    0.056809928
 531   Q   :   -0.177194729    0.100749685    0.166547144
 532   Q   :   -0.045827401    0.008065759   -0.234061649
 533   Q   :    0.252612809    0.027953266    0.088305866
 534   Q   :   -0.215278854   -0.162998058    0.115890775
 535   Q   :   -0.041444764    0.138142335   -0.199358899
 536   Q   :    0.264228558    0.138465986    0.010034473
 537   Q   :   -0.256119293    0.106539445   -0.075364644
 538   Q   :   -0.009588831   -0.240973461    0.054729922
 539   Q   :   -0.265654575    0.165243778   -0.009363847
 540   Q   :   -0.024456443   -0.298680375   -0.086217535
 541   Q   :    0.279774475    0.131063729    0.098240586
 542   Q   :    0.287628544    0.129500171    0.004472726
 543   Q   :   -0.056849219   -0.226905854    0.165563147
 544   Q   :   -0.224314437    0.104332049   -0.161430259
 545   Q   :    0.278644478   -0.034035115   -0.085007627
 546   Q   :   -0.238409505   -0.077557327   -0.145323649
 547   Q   :   -0.037450143    0.102872293    0.222961573
 548   Q   :   -0.008295063   -0.206790478    0.138492395
 549   Q   :    0.192324854    0.207480499    0.015695313
 550   Q   :   -0.173890437    0.000356387   -0.153772666
 551   Q   :    0.026060173   -0.120411166    0.244048828
 552   Q   :    0.193534616   -0.008993621   -0.234317954
 553   Q   :   -0.224334007    0.125412623   -0.017223221
 554   Q   :    0.281847263   -0.150521670    0.019298104
 555   Q   :   -0.026466983    0.235257696    0.059982365
 556   Q   :   -0.247340968   -0.097263090   -0.075131637
 557   Q   :   -0.051289228   -0.189347105   -0.191961664
 558   Q   :    0.040685723   -0.034050066    0.272970076
 559   Q   :    0.022211504    0.212270010   -0.085363522
 560   Q   :   -0.191679040   -0.156987416    0.160787757
 561   Q   :    0.002969115   -0.012516274   -0.278041989
 562   Q   :    0.192353326    0.162193738    0.113927927
 563   Q   :   -0.236361706   -0.158157322   -0.056875822
 564   Q   :    0.293590874   -0.084976053   -0.018363798
 565   Q   :   -0.051788097    0.244888729    0.079668326
 566   Q   :    0.068322563   -0.229820525    0.119325551
 567   Q   :   -0.017718641    0.057220526   -0.262639668
 568   Q   :   -0.052985227    0.177927799    0.144313128
 569   Q   :   -0.138072867    0.221511996   -0.011905689
 570   Q   :    0.218071990   -0.029592053    0.177324019
 571   Q   :   -0.072910089   -0.197025397   -0.167769388
 572   Q   :    0.006256448    0.009888703   -0.255745602
 573   Q   :    0.119091195    0.138670967    0.152475234
 574   Q   :   -0.124832864   -0.152597419    0.096756553
 575   Q   :    0.009776867    0.200685329    0.190714109
 576   Q   :   -0.241017671   -0.004129455   -0.218057486
 577   Q   :    0.230795073   -0.203426550    0.020769833
 578   Q   :    0.068793887   -0.265516407    0.183012155
 579   Q   :   -0.044290119   -0.038468783   -0.290931334
 580   Q   :   -0.022990458    0.301849376    0.115862187
 581   Q   :   -0.339776669    0.088699895   -0.050256891
 582   Q   :    0.133254528    0.066148691   -0.240160905
 583   Q   :    0.197724440   -0.159099322    0.290945128
 584   Q   :   -0.208268277    0.221938288    0.047446007
 585   Q   :    0.235573384    0.030639276   -0.116403444
 586   Q   :   -0.036680460   -0.251522456    0.071395345
 587   Q   :   -0.143762352    0.074260925   -0.217128588
 588   Q   :    0.246465975    0.079169504    0.081034665
 589   Q   :   -0.107354237   -0.147493399    0.150787378
 590   Q   :   -0.225758167    0.160422788    0.060787138
 591   Q   :   -0.013778368   -0.230286972   -0.160682430
 592   Q   :    0.228121340    0.073500719    0.095197428
 593   Q   :   -0.149377380    0.220835611    0.058065647
 594   Q   :    0.198283205   -0.067126266    0.122846972
 595   Q   :   -0.059022051   -0.137977752   -0.190056268
 596   Q   :    0.067768584    0.242621393    0.003673420
 597   Q   :   -0.108592022   -0.099341876    0.182551266
 598   Q   :    0.044474557   -0.137172456   -0.193784385
 599   Q   :   -0.168459677   -0.114443794    0.218013583
 600   Q   :    0.023489884    0.303179229   -0.050015664
 601   Q   :    0.164401813   -0.189598527   -0.166388388
 602   Q   :   -0.020171335   -0.015515484   -0.271461081
 603   Q   :   -0.166295098    0.119168003    0.175293011
 604   Q   :    0.181778083   -0.107238904    0.083872187
 605   Q   :    0.065917567    0.092941140    0.251873632
 606   Q   :   -0.073558773    0.168553489   -0.242469260
 607   Q   :    0.003986925   -0.247091537   -0.016582083
 608   Q   :    0.017214766    0.149022000    0.193006523
 609   Q   :    0.154950646   -0.201912138   -0.072327231
 610   Q   :   -0.189305164    0.056375988   -0.122160347
 611   Q   :    0.254338932    0.011727687    0.048126058
 612   Q   :   -0.172101947   -0.199278825   -0.052890598
 613   Q   :   -0.086194644    0.179457041    0.001219515
 614   Q   :    0.128713061    0.239895933   -0.006917609
 615   Q   :   -0.272685622   -0.039797377   -0.082804632
 616   Q   :    0.130639417   -0.200548682    0.101015831
 617   Q   :    0.074758509   -0.156437534    0.240089563
 618   Q   :    0.138215303    0.102108799   -0.171187008
 619   Q   :   -0.203567155    0.034169490   -0.070468515
 620   Q   :   -0.092201638   -0.231284503   -0.118421044
 621   Q   :    0.274529079    0.073686940   -0.004809892
 622   Q   :   -0.179012414    0.159665406    0.126110586
 623   Q   :   -0.256236106    0.013965148   -0.129827638
 624   Q   :    0.243359498   -0.030947249   -0.143425370
 625   Q   :    0.017831102    0.002914849    0.278271406
 626   Q   :   -0.053766449    0.266163752   -0.053518710
 627   Q   :    0.144931469   -0.102930684    0.231704015
 628   Q   :   -0.088652321   -0.146158049   -0.172501712
 629   Q   :    0.240730244   -0.037619538   -0.090923940
 630   Q   :   -0.075835897    0.213228094    0.124122268
 631   Q   :   -0.160248691   -0.175122638   -0.036213500
 632   Q   :    0.223589930   -0.156095227    0.104722294
 633   Q   :   -0.239688045   -0.119547078   -0.137351013
 634   Q   :    0.012151077    0.281551914    0.033176856

Difference to translation invariance:
           :   -0.0004559566   -0.0014233762    0.0000460439

Difference to rotation invariance:
           :    0.0280740164   -0.0041584534   -0.0130292278

Norm of the cartesian gradient     ...    6.3391141093
RMS gradient                       ...    0.1453527702
MAX gradient                       ...    0.3397766692

-------
TIMINGS
-------

Total SCF gradient time            ...      233.604 sec

One electron gradient       ....      32.838 sec  ( 14.1%)
RI-J Coulomb gradient       ....      13.092 sec  (  5.6%)
COSX gradient               ....     142.156 sec  ( 60.9%)
XC gradient                 ....      17.514 sec  (  7.5%)

Maximum memory used throughout the entire SCFGRAD-calculation: 875.9 MB

                            ***************************************
                            *     ORCA property calculations      *
                            ***************************************

                                    ---------------------
                                    Active property flags
                                    ---------------------
   (+) Dipole Moment


------------------------------------------------------------------------------
                       ORCA ELECTRIC PROPERTIES CALCULATION
------------------------------------------------------------------------------

Dipole Moment Calculation                       ... on
Quadrupole Moment Calculation                   ... off
Polarizability Calculation                      ... off
GBWName                                         ... final084.orca.gbw
Electron density                                ... final084.orca.scfp
The origin for moment calculation is the CENTER OF MASS  = (19.388803, 21.527885 21.146153)

-------------
DIPOLE MOMENT
-------------
                                X             Y             Z
Electronic contribution:      1.55048      -0.56588      -0.09884
Nuclear contribution   :      4.69527       0.59216       4.55093
                        -----------------------------------------
Total Dipole Moment    :      6.24575       0.02628       4.45209
                        -----------------------------------------
Magnitude (a.u.)       :      7.67015
Magnitude (Debye)      :     19.49596



--------------------
Rotational spectrum 
--------------------
 
Rotational constants in cm-1:     0.001630     0.001305     0.001151 
Rotational constants in MHz :    48.871538    39.120530    34.519248 

 Dipole components along the rotational axes: 
x,y,z [a.u.] :     5.464573    -1.222814    -5.241594 
x,y,z [Debye]:    13.889840    -3.108147   -13.323074 

 

Timings for individual modules:

Sum of individual times         ...      962.522 sec (=  16.042 min)
GTO integral calculation        ...       14.045 sec (=   0.234 min)   1.5 %
SCF iterations                  ...      710.309 sec (=  11.838 min)  73.8 %
SCF Gradient evaluation         ...      238.167 sec (=   3.969 min)  24.7 %
                             ****ORCA TERMINATED NORMALLY****
TOTAL RUN TIME: 0 days 0 hours 16 minutes 10 seconds 907 msec
