
                                 *****************
                                 * O   R   C   A *
                                 *****************

                                            #,                                       
                                            ###                                      
                                            ####                                     
                                            #####                                    
                                            ######                                   
                                           ########,                                 
                                     ,,################,,,,,                         
                               ,,#################################,,                 
                          ,,##########################################,,             
                       ,#########################################, ''#####,          
                    ,#############################################,,   '####,        
                  ,##################################################,,,,####,       
                ,###########''''           ''''###############################       
              ,#####''   ,,,,##########,,,,          '''####'''          '####       
            ,##' ,,,,###########################,,,                        '##       
           ' ,,###''''                  '''############,,,                           
         ,,##''                                '''############,,,,        ,,,,,,###''
      ,#''                                            '''#######################'''  
     '                                                          ''''####''''         
             ,#######,   #######,   ,#######,      ##                                
            ,#'     '#,  ##    ##  ,#'     '#,    #''#        ######   ,####,        
            ##       ##  ##   ,#'  ##            #'  '#       #        #'  '#        
            ##       ##  #######   ##           ,######,      #####,   #    #        
            '#,     ,#'  ##    ##  '#,     ,#' ,#      #,         ##   #,  ,#        
             '#######'   ##     ##  '#######'  #'      '#     #####' # '####'        



                  #######################################################
                  #                        -***-                        #
                  #          Department of theory and spectroscopy      #
                  #    Directorship and core code : Frank Neese         #
                  #        Max Planck Institute fuer Kohlenforschung    #
                  #                Kaiser Wilhelm Platz 1               #
                  #                 D-45470 Muelheim/Ruhr               #
                  #                      Germany                        #
                  #                                                     #
                  #                  All rights reserved                #
                  #                        -***-                        #
                  #######################################################


                         Program Version 5.0.3 -  RELEASE  -


 With contributions from (in alphabetic order):
   Daniel Aravena         : Magnetic Suceptibility
   Michael Atanasov       : Ab Initio Ligand Field Theory (pilot matlab implementation)
   Alexander A. Auer      : GIAO ZORA, VPT2 properties, NMR spectrum
   Ute Becker             : Parallelization
   Giovanni Bistoni       : ED, misc. LED, open-shell LED, HFLD
   Martin Brehm           : Molecular dynamics
   Dmytro Bykov           : SCF Hessian
   Vijay G. Chilkuri      : MRCI spin determinant printing, contributions to CSF-ICE
   Dipayan Datta          : RHF DLPNO-CCSD density
   Achintya Kumar Dutta   : EOM-CC, STEOM-CC
   Dmitry Ganyushin       : Spin-Orbit,Spin-Spin,Magnetic field MRCI
   Miquel Garcia          : C-PCM and meta-GGA Hessian, CC/C-PCM, Gaussian charge scheme
   Yang Guo               : DLPNO-NEVPT2, F12-NEVPT2, CIM, IAO-localization
   Andreas Hansen         : Spin unrestricted coupled pair/coupled cluster methods
   Benjamin Helmich-Paris : MC-RPA, TRAH-SCF, COSX integrals
   Lee Huntington         : MR-EOM, pCC
   Robert Izsak           : Overlap fitted RIJCOSX, COSX-SCS-MP3, EOM
   Marcus Kettner         : VPT2
   Christian Kollmar      : KDIIS, OOCD, Brueckner-CCSD(T), CCSD density, CASPT2, CASPT2-K
   Simone Kossmann        : Meta GGA functionals, TD-DFT gradient, OOMP2, MP2 Hessian
   Martin Krupicka        : Initial AUTO-CI
   Lucas Lang             : DCDCAS
   Marvin Lechner         : AUTO-CI (C++ implementation), FIC-MRCC
   Dagmar Lenk            : GEPOL surface, SMD
   Dimitrios Liakos       : Extrapolation schemes; Compound Job, initial MDCI parallelization
   Dimitrios Manganas     : Further ROCIS development; embedding schemes
   Dimitrios Pantazis     : SARC Basis sets
   Anastasios Papadopoulos: AUTO-CI, single reference methods and gradients
   Taras Petrenko         : DFT Hessian,TD-DFT gradient, ASA, ECA, R-Raman, ABS, FL, XAS/XES, NRVS
   Peter Pinski           : DLPNO-MP2, DLPNO-MP2 Gradient
   Christoph Reimann      : Effective Core Potentials
   Marius Retegan         : Local ZFS, SOC
   Christoph Riplinger    : Optimizer, TS searches, QM/MM, DLPNO-CCSD(T), (RO)-DLPNO pert. Triples
   Tobias Risthaus        : Range-separated hybrids, TD-DFT gradient, RPA, STAB
   Michael Roemelt        : Original ROCIS implementation
   Masaaki Saitow         : Open-shell DLPNO-CCSD energy and density
   Barbara Sandhoefer     : DKH picture change effects
   Avijit Sen             : IP-ROCIS
   Kantharuban Sivalingam : CASSCF convergence, NEVPT2, FIC-MRCI
   Bernardo de Souza      : ESD, SOC TD-DFT
   Georgi Stoychev        : AutoAux, RI-MP2 NMR, DLPNO-MP2 response
   Willem Van den Heuvel  : Paramagnetic NMR
   Boris Wezisla          : Elementary symmetry handling
   Frank Wennmohs         : Technical directorship


 We gratefully acknowledge several colleagues who have allowed us to
 interface, adapt or use parts of their codes:
   Stefan Grimme, W. Hujo, H. Kruse, P. Pracht,  : VdW corrections, initial TS optimization,
                  C. Bannwarth, S. Ehlert          DFT functionals, gCP, sTDA/sTD-DF
   Ed Valeev, F. Pavosevic, A. Kumar             : LibInt (2-el integral package), F12 methods
   Garnet Chan, S. Sharma, J. Yang, R. Olivares  : DMRG
   Ulf Ekstrom                                   : XCFun DFT Library
   Mihaly Kallay                                 : mrcc  (arbitrary order and MRCC methods)
   Jiri Pittner, Ondrej Demel                    : Mk-CCSD
   Frank Weinhold                                : gennbo (NPA and NBO analysis)
   Christopher J. Cramer and Donald G. Truhlar   : smd solvation model
   Lars Goerigk                                  : TD-DFT with DH, B97 family of functionals
   V. Asgeirsson, H. Jonsson                     : NEB implementation
   FAccTs GmbH                                   : IRC, NEB, NEB-TS, DLPNO-Multilevel, CI-OPT
                                                   MM, QMMM, 2- and 3-layer-ONIOM, Crystal-QMMM,
                                                   LR-CPCM, SF, NACMEs, symmetry and pop. for TD-DFT,
                                                   nearIR, NL-DFT gradient (VV10), updates on ESD,
                                                   ML-optimized integration grids
   S Lehtola, MJT Oliveira, MAL Marques          : LibXC Library
   Liviu Ungur et al                             : ANISO software


 Your calculation uses the libint2 library for the computation of 2-el integrals
 For citations please refer to: http://libint.valeyev.net

 Your ORCA version has been built with support for libXC version: 5.1.0
 For citations please refer to: https://tddft.org/programs/libxc/

 This ORCA versions uses:
   CBLAS   interface :  Fast vector & matrix operations
   LAPACKE interface :  Fast linear algebra routines
   SCALAPACK package :  Parallel linear algebra routines
   Shared memory     :  Shared parallel matrices
   BLAS/LAPACK       :  OpenBLAS 0.3.15  USE64BITINT DYNAMIC_ARCH NO_AFFINITY SkylakeX SINGLE_THREADED
        Core in use  :  SkylakeX
   Copyright (c) 2011-2014, The OpenBLAS Project


================================================================================

----- Orbital basis set information -----
Your calculation utilizes the basis: def2-SVP
   F. Weigend and R. Ahlrichs, Phys. Chem. Chem. Phys. 7, 3297 (2005).

The basis set includes element-specific modifications.

Your calculation utilizes the basis: aug-cc-pVTZ 
    H, B-Ne : Obtained from the ccRepo (grant-hill.group.shef.ac.uk/ccrepo) Feb. 2017
              R. A. Kendall, T. H. Dunning, Jr., R. J. Harrison, J. Chem. Phys. 96, 6796 (1992)
         He : Obtained from the ccRepo (grant-hill.group.shef.ac.uk/ccrepo) Feb. 2017
              D. E. Woon, T. H. Dunning, Jr., J. Chem. Phys. 100, 2975 (1994)
  Li-Be, Na : Obtained from the ccRepo (grant-hill.group.shef.ac.uk/ccrepo) Feb. 2017
              B. P. Prascher, D. E. Woon, K. A. Peterson, T. H. Dunning, Jr., A. K. Wilson, Theor. Chem. Acc. 128, 69 (2011)
         Mg : Obtained from the Peterson Research Group Website (tyr0.chem.wsu.edu/~kipeters) Feb. 2017
              B. P. Prascher, D. E. Woon, K. A. Peterson, T. H. Dunning, Jr., A. K. Wilson, Theor. Chem. Acc. 128, 69 (2011)
      Al-Ar : Obtained from the ccRepo (grant-hill.group.shef.ac.uk/ccrepo) Feb. 2017
              D. E. Woon, T. H. Dunning, Jr., J. Chem. Phys. 98, 1358 (1993)
      Sc-Zn : Obtained from the ccRepo (grant-hill.group.shef.ac.uk/ccrepo) Feb. 2017
              N. B. Balabanov, K. A. Peterson, J. Chem. Phys. 123, 064107 (2005)
              N. B. Balabanov, K. A. Peterson, J. Chem. Phys. 125, 074110 (2006)
      Ga-Kr : Obtained from the ccRepo (grant-hill.group.shef.ac.uk/ccrepo) Feb. 2017
              A. K. Wilson, D. E. Woon, K. A. Peterson, T. H. Dunning, Jr., J. Chem. Phys. 110, 7667 (1999)
     Ag, Au : Obtained from the Peterson Research Group Website (tyr0.chem.wsu.edu/~kipeters) Feb. 2017
              K. A. Peterson, C. Puzzarini, Theor. Chem. Acc. 114, 283 (2005)

Your calculation utilizes the basis: cc-pVTZ 
       H, B-Ne : Obtained from the ccRepo (grant-hill.group.shef.ac.uk/ccrepo) Feb. 2017
                 T. H. Dunning, Jr., J. Chem. Phys. 90, 1007 (1989)
            He : Obtained from the ccRepo (grant-hill.group.shef.ac.uk/ccrepo) Feb. 2017
                 D. E. Woon, T. H. Dunning, Jr., J. Chem. Phys. 100, 2975 (1994)
  Li-Be, Na-Mg : Obtained from the ccRepo (grant-hill.group.shef.ac.uk/ccrepo) Feb. 2017
                 B. P. Prascher, D. E. Woon, K. A. Peterson, T. H. Dunning, Jr., A. K. Wilson, Theor. Chem. Acc. 128, 69 (2011)
         Al-Ar : Obtained from the ccRepo (grant-hill.group.shef.ac.uk/ccrepo) Feb. 2017
                 D. E. Woon, T. H. Dunning, Jr., J. Chem. Phys. 98, 1358 (1993)
            Ca : Obtained from the Peterson Research Group Website (tyr0.chem.wsu.edu/~kipeters) Feb. 2017
                 J. Koput, K. A. Peterson, J. Phys. Chem. 106, 9595 (2002)
         Sc-Zn : Obtained from the ccRepo (grant-hill.group.shef.ac.uk/ccrepo) Feb. 2017
                 N. B. Balabanov, K. A. Peterson, J. Chem. Phys. 123, 064107 (2005)
                 N. B. Balabanov, K. A. Peterson, J. Chem. Phys. 125, 074110 (2006)
         Ga-Kr : Obtained from the ccRepo (grant-hill.group.shef.ac.uk/ccrepo) Feb. 2017
                 A. K. Wilson, D. E. Woon, K. A. Peterson, T. H. Dunning, Jr., J. Chem. Phys. 110, 7667 (1999)
             Y : Obtained from the ccRepo (grant-hill.group.shef.ac.uk/ccrepo) Feb. 2017
                 K. A. Peterson, D. Figgen, M. Dolg, H. Stoll, J. Chem. Phys. 126, 124101 (2007)
        Ag, Au : Obtained from the Peterson Research Group Website (tyr0.chem.wsu.edu/~kipeters) Feb. 2017
                 K. A. Peterson, C. Puzzarini, Theor. Chem. Acc. 114, 283 (2005)

----- AuxJ basis set information -----
Your calculation utilizes the auxiliary basis: def2/J
   F. Weigend, Phys. Chem. Chem. Phys. 8, 1057 (2006).

================================================================================
                                        WARNINGS
                       Please study these warnings very carefully!
================================================================================

WARNING: The globally-selected AuxJ basis set is optimized for use with ECPs
         Make sure a suitable alternative is explicitly given all heavy elements (Z>36)

INFO   : the flag for use of the SHARK integral package has been found!

================================================================================
                                       INPUT FILE
================================================================================
NAME = final014.orca.inp
|  1> ! NoMOPrint PrintBasis #MINIPRINT SMALLPRINT LARGEPRINT
|  2> ! ALLPOP XYZFILE
|  3> #! BP86 3-21G   TightSCF
|  4> ! ENGRAD
|  5> ! B3LYP NormalPNO PModel #DecontractAux
|  6> #! VerySlowConv 
|  7>  %maxcore 5000
|  8>  %scf  maxiter   500  end 
|  9> 
| 10> %pal
| 11>     nprocs 32
| 12> end
| 13> 
| 14> %basis
| 15>     NewGTO O    # New basis for oxygen
| 16>         "aug-cc-pVTZ"
| 17>     end
| 18>     NewGTO C    # New basis for carbon
| 19>         "aug-cc-pVTZ"
| 20>     end
| 21>     NewGTO H    # New basis for hydrogen
| 22>         "cc-pVTZ"
| 23>     end
| 24> end
| 25> 
| 26> * xyz 0   1
| 27>   C  12.39  11.97  11.91  #1
| 28>   H  12.96  11.92  11.01  #2
| 29>   H  13  11.61  12.7  #3
| 30>   C  11.15  11.13  11.71  #4
| 31>   H  10.71  11.07  12.7  #5
| 32>   H  10.43  11.76  11.13  #6
| 33>   C  11.24  9.71  11  #7
| 34>   H  11.8  9.03  11.66  #8
| 35>   H  11.77  9.71  10.05  #9
| 36>   C  9.8  9.06  10.8  #10
| 37>   H  9.24  8.87  11.71  #11
| 38>   H  9.91  8.1  10.26  #12
| 39>   O  8.96  9.87  10.1  #13
| 40>   H  9.31  10.04  9.25  #14
| 41>   O  12.07  13.37  12.07  #15
| 42>   H  12.89  13.86  11.88  #16
| 43>   O  14.18  14.94  11.6  #17
| 44>   H  14.52  14.28  11.01  #18
| 45>   H  14.2  15.74  11.1  #19
| 46>   O  11.57  6.56  12.45  #20
| 47>   H  11.71  6.4  11.51  #21
| 48>   H  12.16  5.87  12.97  #22
| 49>   O  7.03  8.71  8.12  #23
| 50>   H  7.42  9.24  8.82  #24
| 51>   H  7.7  8.05  8.12  #25
| 52>   O  11.2  9.93  15.23  #26
| 53>   H  11.82  10.67  15.39  #27
| 54>   H  11.7  9.48  14.53  #28
| 55>   O  13.27  16.02  14.03  #29
| 56>   H  13.66  15.76  13.18  #30
| 57>   H  12.33  15.68  13.95  #31
| 58>   O  13.17  11.82  15.8  #32
| 59>   H  12.83  12.71  15.94  #33
| 60>   H  13.94  12.07  15.25  #34
| 61>   O  9  12.79  7.8  #35
| 62>   H  9.32  12.81  8.73  #36
| 63>   H  9.66  13.15  7.26  #37
| 64>   O  15.46  17.61  11.77  #38
| 65>   H  15.87  17.84  10.93  #39
| 66>   H  15.75  18.29  12.45  #40
| 67>   O  12.7  8.45  17.86  #41
| 68>   H  12.29  9.04  17.26  #42
| 69>   H  13.28  9.01  18.46  #43
| 70>   O  17.17  15.3  11.54  #44
| 71>   H  16.38  15.85  11.67  #45
| 72>   H  17.75  15.56  12.27  #46
| 73>   O  13.28  11.17  7.55  #47
| 74>   H  13.7  11.9  7.98  #48
| 75>   H  12.49  10.84  7.99  #49
| 76>   O  8.19  5.89  8.56  #50
| 77>   H  8.36  6.13  9.5  #51
| 78>   H  8.83  5.24  8.39  #52
| 79>   O  10.1  10.23  17.78  #53
| 80>   H  10.17  9.97  16.84  #54
| 81>   H  9.8  9.44  18.31  #55
| 82>   O  16.27  12.52  11.48  #56
| 83>   H  16.56  11.78  10.92  #57
| 84>   H  16.83  13.29  11.28  #58
| 85>   O  10.63  15.15  13.76  #59
| 86>   H  10.37  15.82  13.08  #60
| 87>   H  11.09  14.4  13.32  #61
| 88>   O  14.45  16.57  9.06  #62
| 89>   H  15.19  17.14  8.88  #63
| 90>   H  14.75  15.72  8.63  #64
| 91>   O  14.47  17.84  16.19  #65
| 92>   H  13.6  17.69  15.81  #66
| 93>   H  14.92  18.33  15.48  #67
| 94>   O  10.26  14.22  10.33  #68
| 95>   H  10.83  13.7  10.94  #69
| 96>   H  9.48  14.46  10.77  #70
| 97>   O  11.1  4.87  9.02  #71
| 98>   H  10.94  4.64  8.07  #72
| 99>   H  11.72  5.62  9.04  #73
|100>   O  12.98  4.81  14.02  #74
|101>   H  13.99  4.75  13.86  #75
|102>   H  12.91  5.27  14.89  #76
|103>   O  9.63  3.81  12.39  #77
|104>   H  10.46  4.33  12.38  #78
|105>   H  8.97  4.46  12.18  #79
|106>   O  9.77  7.59  14.63  #80
|107>   H  10.34  7.39  13.87  #81
|108>   H  9.99  8.52  14.6  #82
|109>   O  14.04  6.05  10.64  #83
|110>   H  13.89  6.32  9.69  #84
|111>   H  14.61  6.71  10.99  #85
|112>   O  7.02  11.13  6.25  #86
|113>   H  7.2  10.28  6.67  #87
|114>   H  7.12  11.83  6.92  #88
|115>   O  10.31  10.28  7.76  #89
|116>   H  9.67  10.87  7.3  #90
|117>   H  10.69  9.67  7.14  #91
|118>   O  7.19  7.52  13.2  #92
|119>   H  8  7.77  13.71  #93
|120>   H  6.77  8.37  12.98  #94
|121>   O  15.1  14.74  15.9  #95
|122>   H  14.38  15.17  15.42  #96
|123>   H  14.93  14.84  16.86  #97
|124>   O  11.12  14.17  16.4  #98
|125>   H  10.29  13.76  16.27  #99
|126>   H  11.13  14.81  15.65  #100
|127>   O  7.5  11.46  11.88  #101
|128>   H  7.09  12.09  11.29  #102
|129>   H  8.1  10.99  11.29  #103
|130>   O  13.05  8.63  13.52  #104
|131>   H  13.55  8.42  14.33  #105
|132>   H  12.54  7.82  13.29  #106
|133>   Q  0.6645  5.39$  2.92$  12.43$
|134>   Q  0.6645  6.36$  3.95$  11.92$
|135>   Q  -1.3290  6.16$  3.21$  12.21$
|136>   Q  0.6645  12.01$  7.13$  2.93$
|137>   Q  0.6645  12.25$  7.8$  4.22$
|138>   Q  -1.3290  12.21$  7.77$  3.41$
|139>   Q  0.6645  19.91$  5.75$  14.32$
|140>   Q  0.6645  19.69$  7.28$  14.03$
|141>   Q  -1.3290  19.84$  6.58$  14.51$
|142>   Q  0.6645  15.95$  13.43$  14.57$
|143>   Q  0.6645  16.16$  12.5$  13.35$
|144>   Q  -1.3290  16.24$  12.74$  14.15$
|145>   Q  0.6645  20.92$  10.23$  13.27$
|146>   Q  0.6645  21.8$  9.85$  14.47$
|147>   Q  -1.3290  21.28$  10.34$  14.02$
|148>   Q  0.6645  17.57$  15.17$  9.79$
|149>   Q  0.6645  17.34$  15.63$  8.27$
|150>   Q  -1.3290  17.76$  15.32$  8.95$
|151>   Q  0.6645  11.12$  14.23$  19.57$
|152>   Q  0.6645  11.53$  13.91$  18.03$
|153>   Q  -1.3290  11.58$  13.88$  18.93$
|154>   Q  0.6645  5.69$  10.3$  11.51$
|155>   Q  0.6645  4.43$  9.61$  11.72$
|156>   Q  -1.3290  5.18$  9.66$  11.42$
|157>   Q  0.6645  10.92$  21.82$  14.1$
|158>   Q  0.6645  10.37$  20.44$  14.07$
|159>   Q  -1.3290  11$  20.99$  14.13$
|160>   Q  0.6645  7.49$  9.61$  19.97$
|161>   Q  0.6645  6.3$  10.05$  19.02$
|162>   Q  -1.3290  6.87$  9.48$  19.38$
|163>   Q  0.6645  10.06$  18.85$  18.76$
|164>   Q  0.6645  9.15$  18.43$  19.96$
|165>   Q  -1.3290  9.63$  18.97$  19.49$
|166>   Q  0.6645  10.92$  20.81$  17.07$
|167>   Q  0.6645  11.15$  19.91$  15.84$
|168>   Q  -1.3290  11.14$  20.07$  16.68$
|169>   Q  0.6645  15.6$  12.54$  9.16$
|170>   Q  0.6645  15.34$  13.4$  7.84$
|171>   Q  -1.3290  15.15$  13.05$  8.59$
|172>   Q  0.6645  17.79$  7.06$  18.14$
|173>   Q  0.6645  16.91$  6.39$  17.01$
|174>   Q  -1.3290  17.32$  6.47$  17.78$
|175>   Q  0.6645  8.17$  2.6$  17.49$
|176>   Q  0.6645  9.76$  2.33$  17.44$
|177>   Q  -1.3290  9.01$  2.66$  17.75$
|178>   Q  0.6645  14.88$  5.21$  3.82$
|179>   Q  0.6645  15.54$  4.63$  5.21$
|180>   Q  -1.3290  15.11$  5.2$  4.66$
|181>   Q  0.6645  17.26$  18.51$  14.37$
|182>   Q  0.6645  16.66$  19.95$  14.72$
|183>   Q  -1.3290  16.78$  19.23$  14.27$
|184>   Q  0.6645  2.81$  4.05$  9.2$
|185>   Q  0.6645  4.08$  4.62$  8.62$
|186>   Q  -1.3290  3.42$  4.11$  8.62$
|187>   Q  0.6645  17.49$  3.49$  6.08$
|188>   Q  0.6645  16.45$  4.25$  6.87$
|189>   Q  -1.3290  16.7$  3.68$  6.31$
|190>   Q  0.6645  19.94$  12.75$  8.62$
|191>   Q  0.6645  19.48$  14.21$  8.94$
|192>   Q  -1.3290  20.03$  13.55$  8.91$
|193>   Q  0.6645  4.66$  10.24$  2.31$
|194>   Q  0.6645  4.64$  11.32$  3.37$
|195>   Q  -1.3290  4.77$  11.01$  2.59$
|196>   Q  0.6645  14.14$  9.07$  20.47$
|197>   Q  0.6645  13.15$  10.19$  20.24$
|198>   Q  -1.3290  13.78$  9.66$  20.02$
|199>   Q  0.6645  9.34$  20.78$  11.19$
|200>   Q  0.6645  10.81$  20.23$  11.27$
|201>   Q  -1.3290  9.99$  20.31$  10.95$
|202>   Q  0.6645  6.68$  15.06$  7.49$
|203>   Q  0.6645  7.84$  14.27$  8.06$
|204>   Q  -1.3290  7.33$  14.9$  7.99$
|205>   Q  0.6645  17.63$  22.04$  12.75$
|206>   Q  0.6645  17.13$  20.63$  12.84$
|207>   Q  -1.3290  17.23$  21.35$  12.47$
|208>   Q  0.6645  14.06$  17.5$  5.65$
|209>   Q  0.6645  15.45$  18.19$  5.59$
|210>   Q  -1.3290  14.91$  17.55$  5.66$
|211>   Q  0.6645  13.69$  4.77$  5.67$
|212>   Q  0.6645  13.6$  3.71$  6.93$
|213>   Q  -1.3290  13.3$  4.32$  6.34$
|214>   Q  0.6645  18.64$  17.74$  16.32$
|215>   Q  0.6645  19.72$  18.65$  15.67$
|216>   Q  -1.3290  19.33$  17.93$  15.88$
|217>   Q  0.6645  20.96$  9.17$  11.36$
|218>   Q  0.6645  20.19$  10.51$  11.36$
|219>   Q  -1.3290  20.3$  9.7$  11.57$
|220>   Q  0.6645  16.69$  9.8$  9.09$
|221>   Q  0.6645  15.89$  9.74$  10.36$
|222>   Q  -1.3290  16.34$  10.11$  9.79$
|223>   Q  0.6645  3.7$  13.47$  4.57$
|224>   Q  0.6645  4.53$  14.34$  3.65$
|225>   Q  -1.3290  3.93$  14.21$  4.25$
|226>   Q  0.6645  13.24$  2.49$  8.75$
|227>   Q  0.6645  13.18$  1.82$  7.35$
|228>   Q  -1.3290  13.54$  2.26$  7.99$
|229>   Q  0.6645  12.99$  20.89$  13.34$
|230>   Q  0.6645  14.18$  21.36$  12.48$
|231>   Q  -1.3290  13.7$  21.35$  13.15$
|232>   Q  0.6645  12.86$  11.57$  5.88$
|233>   Q  0.6645  13.31$  12.04$  4.5$
|234>   Q  -1.3290  12.76$  11.95$  5.12$
|235>   Q  0.6645  4.47$  12.92$  15.02$
|236>   Q  0.6645  5.97$  13.14$  14.93$
|237>   Q  -1.3290  5.29$  12.75$  15.2$
|238>   Q  0.6645  20.21$  5.97$  7.96$
|239>   Q  0.6645  19.67$  4.6$  7.95$
|240>   Q  -1.3290  19.59$  5.41$  8.12$
|241>   Q  0.6645  13.27$  1.35$  14.16$
|242>   Q  0.6645  12.98$  2.83$  14.29$
|243>   Q  -1.3290  13.02$  2.05$  14.57$
|244>   Q  0.6645  14.22$  20.79$  16.5$
|245>   Q  0.6645  14.12$  21.23$  15.1$
|246>   Q  -1.3290  14.54$  20.98$  15.78$
|247>   Q  0.6645  7.42$  7.24$  2.28$
|248>   Q  0.6645  8.01$  6.78$  0.91$
|249>   Q  -1.3290  8.01$  6.9$  1.76$
|250>   Q  0.6645  15.65$  8.74$  3.76$
|251>   Q  0.6645  15.54$  10.12$  3.18$
|252>   Q  -1.3290  15.78$  9.32$  3.16$
|253>   Q  0.6645  18.57$  14.15$  17.17$
|254>   Q  0.6645  17.44$  15.22$  17.13$
|255>   Q  -1.3290  18.08$  14.77$  17.47$
|256>   Q  0.6645  8.1$  3.5$  3.07$
|257>   Q  0.6645  8$  5.06$  2.7$
|258>   Q  -1.3290  7.73$  4.3$  3.03$
|259>   Q  0.6645  16.29$  14.35$  4.23$
|260>   Q  0.6645  17.44$  13.37$  4.56$
|261>   Q  -1.3290  16.6$  13.65$  4.51$
|262>   Q  0.6645  16.01$  5.5$  14.07$
|263>   Q  0.6645  15.81$  4.5$  12.85$
|264>   Q  -1.3290  15.73$  4.77$  13.67$
|265>   Q  0.6645  6.07$  8.97$  3.73$
|266>   Q  0.6645  5.32$  7.6$  3.94$
|267>   Q  -1.3290  5.65$  8.26$  3.49$
|268>   Q  0.6645  17.46$  18.25$  9.31$
|269>   Q  0.6645  16.41$  19.36$  9.61$
|270>   Q  -1.3290  16.66$  18.56$  9.47$
|271>   Q  0.6645  6.08$  1.56$  8.25$
|272>   Q  0.6645  7.5$  2.23$  8.55$
|273>   Q  -1.3290  6.82$  1.96$  8.06$
|274>   Q  0.6645  19.6$  10.05$  14.77$
|275>   Q  0.6645  18.23$  10.12$  15.36$
|276>   Q  -1.3290  18.9$  9.72$  15.07$
|277>   Q  0.6645  7.71$  -0.23$  6$
|278>   Q  0.6645  6.96$  1.02$  6.22$
|279>   Q  -1.3290  7.38$  0.46$  5.72$
|280>   Q  0.6645  11.11$  10.76$  19.49$
|281>   Q  0.6645  11.92$  12.01$  19.85$
|282>   Q  -1.3290  11.55$  11.27$  19.98$
|283>   Q  0.6645  8.94$  18.33$  15.29$
|284>   Q  0.6645  8.26$  18.05$  16.65$
|285>   Q  -1.3290  8.8$  17.9$  16$
|286>   Q  0.6645  10.49$  20.71$  8.79$
|287>   Q  0.6645  11.66$  20.62$  7.86$
|288>   Q  -1.3290  10.97$  20.97$  8.16$
|289>   Q  0.6645  10.7$  8.22$  5.54$
|290>   Q  0.6645  11.88$  7.72$  6.52$
|291>   Q  -1.3290  11.46$  8.25$  6.01$
|292>   Q  0.6645  10.51$  11.94$  2.07$
|293>   Q  0.6645  11.13$  11.45$  3.33$
|294>   Q  -1.3290  10.65$  11.39$  2.63$
|295>   Q  0.6645  9.37$  6.93$  4.82$
|296>   Q  0.6645  8.88$  8.41$  4.7$
|297>   Q  -1.3290  9.08$  7.67$  5.07$
|298>   Q  0.6645  0.57$  4.96$  10.71$
|299>   Q  0.6645  1.97$  4.69$  11.25$
|300>   Q  -1.3290  1.35$  4.65$  10.68$
|301>   Q  0.6645  12.89$  5.98$  7.54$
|302>   Q  0.6645  13.78$  7.3$  7.8$
|303>   Q  -1.3290  13.14$  6.71$  7.93$
|304>   Q  0.6645  6.42$  5.87$  10.62$
|305>   Q  0.6645  7.12$  6.49$  11.99$
|306>   Q  -1.3290  6.94$  5.89$  11.31$
|307>   Q  0.6645  1.68$  11.87$  12.12$
|308>   Q  0.6645  0.32$  12.08$  11.36$
|309>   Q  -1.3290  1.17$  12.05$  11.46$
|310>   Q  0.6645  15.5$  16.06$  21.26$
|311>   Q  0.6645  15.69$  15.11$  19.97$
|312>   Q  -1.3290  15.92$  15.67$  20.56$
|313>   Q  0.6645  4.91$  11.63$  18.3$
|314>   Q  0.6645  5.6$  11.69$  16.88$
|315>   Q  -1.3290  5.58$  11.61$  17.75$
|316>   Q  0.6645  2.09$  9$  16.04$
|317>   Q  0.6645  0.63$  8.89$  16.54$
|318>   Q  -1.3290  1.28$  9.24$  16.12$
|319>   Q  0.6645  19.84$  18.07$  10.2$
|320>   Q  0.6645  19.86$  19.14$  9.05$
|321>   Q  -1.3290  19.6$  18.43$  9.47$
|322>   Q  0.6645  4.68$  15.41$  7.17$
|323>   Q  0.6645  4.72$  15.07$  5.64$
|324>   Q  -1.3290  4.99$  15.42$  6.38$
|325>   Q  0.6645  13.75$  14.23$  19.13$
|326>   Q  0.6645  15.06$  13.51$  18.73$
|327>   Q  -1.3290  14.53$  14.18$  18.82$
|328>   Q  0.6645  7.08$  2.13$  13.92$
|329>   Q  0.6645  6.99$  1.38$  15.2$
|330>   Q  -1.3290  7.2$  1.46$  14.41$
|331>   Q  0.6645  2.56$  12.1$  8.75$
|332>   Q  0.6645  3.99$  12.76$  8.51$
|333>   Q  -1.3290  3.24$  12.39$  8.3$
|334>   Q  0.6645  21.28$  16.76$  11.91$
|335>   Q  0.6645  20.94$  18.14$  12.21$
|336>   Q  -1.3290  20.78$  17.42$  11.87$
|337>   Q  0.6645  13.42$  2.23$  16.64$
|338>   Q  0.6645  14.16$  2.09$  18.05$
|339>   Q  -1.3290  13.5$  2.26$  17.53$
|340>   Q  0.6645  9.38$  0.89$  5.88$
|341>   Q  0.6645  10.16$  0.29$  7.09$
|342>   Q  -1.3290  9.93$  0.91$  6.54$
|343>   Q  0.6645  8.6$  10.67$  3.33$
|344>   Q  0.6645  7.61$  10.76$  4.41$
|345>   Q  -1.3290  8$  10.37$  3.82$
|346>   Q  0.6645  7.43$  5.87$  5.74$
|347>   Q  0.6645  7.27$  4.67$  4.9$
|348>   Q  -1.3290  7.16$  5.1$  5.61$
|349>   Q  0.6645  10.61$  5.03$  3.58$
|350>   Q  0.6645  10.26$  4.55$  5.03$
|351>   Q  -1.3290  10.3$  5.07$  4.35$
|352>   Q  0.6645  9.42$  2.95$  6.63$
|353>   Q  0.6645  8.52$  4.06$  6.47$
|354>   Q  -1.3290  9.23$  3.75$  6.68$
|355>   Q  0.6645  7.78$  15.98$  11.69$
|356>   Q  0.6645  8.18$  14.73$  12.58$
|357>   Q  -1.3290  8.07$  15.2$  11.87$
|358>   Q  0.6645  17.25$  7.65$  5.31$
|359>   Q  0.6645  15.93$  6.97$  5.51$
|360>   Q  -1.3290  16.46$  7.66$  5.45$
|361>   Q  0.6645  12.11$  3.21$  3.62$
|362>   Q  0.6645  12.08$  3.34$  5$
|363>   Q  -1.3290  12.01$  2.89$  4.33$
|364>   Q  0.6645  8.32$  19.47$  5.65$
|365>   Q  0.6645  9.03$  19.79$  7.03$
|366>   Q  -1.3290  8.42$  19.81$  6.44$
|367>   Q  0.6645  6.16$  1.53$  11.13$
|368>   Q  0.6645  5$  0.84$  10.63$
|369>   Q  -1.3290  5.81$  0.87$  10.85$
|370>   Q  0.6645  3.31$  8.52$  13.15$
|371>   Q  0.6645  2.02$  8.91$  12.06$
|372>   Q  -1.3290  2.71$  9.02$  12.67$
|373>   Q  0.6645  5.72$  15.15$  12.43$
|374>   Q  0.6645  4.2$  15.05$  12.76$
|375>   Q  -1.3290  4.92$  14.78$  12.5$
|376>   Q  0.6645  1.94$  5.24$  5.46$
|377>   Q  0.6645  2.77$  5.15$  6.68$
|378>   Q  -1.3290  2.35$  5.56$  6.09$
|379>   Q  0.6645  13.25$  20.57$  9.04$
|380>   Q  0.6645  12.6$  21.57$  10.22$
|381>   Q  -1.3290  13.16$  20.94$  9.84$
|382>   Q  0.6645  9.16$  10.28$  21.71$
|383>   Q  0.6645  9.59$  11.32$  20.77$
|384>   Q  -1.3290  9.03$  10.94$  21.23$
|385>   Q  0.6645  2.92$  3.15$  12.52$
|386>   Q  0.6645  3.18$  1.73$  12.71$
|387>   Q  -1.3290  3.33$  2.47$  12.35$
|388>   Q  0.6645  8.56$  18.72$  10.56$
|389>   Q  0.6645  8.15$  17.91$  9.43$
|390>   Q  -1.3290  8.19$  18.08$  10.24$
|391>   Q  0.6645  17.84$  6.71$  15.03$
|392>   Q  0.6645  16.33$  7.36$  15.23$
|393>   Q  -1.3290  16.94$  6.73$  15.15$
|394>   Q  0.6645  6.22$  14.85$  17.28$
|395>   Q  0.6645  5.45$  16.07$  16.59$
|396>   Q  -1.3290  5.59$  15.42$  17.16$
|397>   Q  0.6645  16.63$  14.7$  6.36$
|398>   Q  0.6645  15.76$  15.94$  6.61$
|399>   Q  -1.3290  16.08$  15.18$  6.79$
|400>   Q  0.6645  4.16$  17.59$  15.09$
|401>   Q  0.6645  5.3$  18.54$  15.67$
|402>   Q  -1.3290  4.92$  17.81$  15.41$
|403>   Q  0.6645  15.47$  8.89$  16.38$
|404>   Q  0.6645  14.28$  8.02$  16.85$
|405>   Q  -1.3290  14.91$  8.28$  16.35$
|406>   Q  0.6645  10.46$  9.4$  1.48$
|407>   Q  0.6645  9.39$  8.63$  1.36$
|408>   Q  -1.3290  10$  8.95$  1.01$
|409>   Q  0.6645  12.84$  5.34$  17.04$
|410>   Q  0.6645  12.27$  6.68$  17.13$
|411>   Q  -1.3290  12.47$  5.97$  16.72$
|412>   Q  0.6645  5.45$  18.13$  8.72$
|413>   Q  0.6645  6.23$  17.81$  9.97$
|414>   Q  -1.3290  5.59$  17.75$  9.46$
|415>   Q  0.6645  20.34$  12.12$  17.6$
|416>   Q  0.6645  19.94$  12.34$  16.1$
|417>   Q  -1.3290  20.06$  12.56$  16.91$
|418>   Q  0.6645  8.81$  1.66$  11.52$
|419>   Q  0.6645  7.91$  0.54$  11.06$
|420>   Q  -1.3290  8.63$  0.91$  11.18$
|421>   Q  0.6645  8.88$  11.9$  16.83$
|422>   Q  0.6645  8.13$  13.08$  17.23$
|423>   Q  -1.3290  8.56$  12.67$  16.69$
|424>   Q  0.6645  13.02$  8.63$  1.73$
|425>   Q  0.6645  14.17$  9$  0.91$
|426>   Q  -1.3290  13.46$  8.62$  1.02$
|427>   Q  0.6645  7.96$  17.18$  6.25$
|428>   Q  0.6645  6.55$  16.52$  5.84$
|429>   Q  -1.3290  7.32$  16.94$  5.73$
|430>   Q  0.6645  10$  13.84$  21.38$
|431>   Q  0.6645  8.75$  13.77$  20.36$
|432>   Q  -1.3290  9.46$  14.14$  20.77$
|433>   Q  0.6645  6.43$  11.8$  1.54$
|434>   Q  0.6645  7.46$  11.86$  0.44$
|435>   Q  -1.3290  6.99$  12.18$  1.05$
|436>   Q  0.6645  20.39$  10.76$  7.15$
|437>   Q  0.6645  19.02$  10.12$  7.65$
|438>   Q  -1.3290  19.58$  10.76$  7.43$
|439>   Q  0.6645  6.64$  10.74$  14.9$
|440>   Q  0.6645  7.15$  9.36$  15.5$
|441>   Q  -1.3290  7.12$  10.04$  14.97$
|442>   Q  0.6645  17.88$  8.74$  13.6$
|443>   Q  0.6645  18.58$  8.7$  12.25$
|444>   Q  -1.3290  18.03$  8.42$  12.85$
|445>   Q  0.6645  2.22$  14.64$  15.38$
|446>   Q  0.6645  2.23$  13.37$  14.58$
|447>   Q  -1.3290  2.09$  14.21$  14.69$
|448>   Q  0.6645  8.42$  13.38$  14.75$
|449>   Q  0.6645  7.96$  12.61$  13.46$
|450>   Q  -1.3290  7.96$  13.25$  14.03$
|451>   Q  0.6645  6.05$  14.05$  9.83$
|452>   Q  0.6645  5.14$  13.54$  10.93$
|453>   Q  -1.3290  5.55$  13.5$  10.19$
|454>   Q  0.6645  1.49$  13.81$  10.52$
|455>   Q  0.6645  0.46$  14.32$  9.48$
|456>   Q  -1.3290  1.14$  14.38$  9.99$
|457>   Q  0.6645  4.34$  16.24$  9.39$
|458>   Q  0.6645  3.23$  15.22$  9.56$
|459>   Q  -1.3290  3.68$  15.77$  9.11$
|460>   Q  0.6645  6.62$  12.97$  18.64$
|461>   Q  0.6645  6.8$  14.16$  19.48$
|462>   Q  -1.3290  7.05$  13.62$  18.94$
|463>   Q  0.6645  6.49$  20.59$  11.98$
|464>   Q  0.6645  6.95$  21.52$  13.07$
|465>   Q  -1.3290  6.92$  20.81$  12.67$
|466>   Q  0.6645  9.64$  7.18$  18.45$
|467>   Q  0.6645  10.76$  7.62$  19.43$
|468>   Q  -1.3290  9.96$  7.61$  19.11$
|469>   Q  0.6645  11.84$  1.84$  11.17$
|470>   Q  0.6645  10.85$  0.65$  11.34$
|471>   Q  -1.3290  11.62$  1.01$  11.27$
|472>   Q  0.6645  18.51$  8.01$  7.2$
|473>   Q  0.6645  18.29$  8.03$  8.75$
|474>   Q  -1.3290  18.16$  8.26$  7.94$
|475>   Q  0.6645  1.48$  11.25$  14.26$
|476>   Q  0.6645  2.52$  10.77$  13.54$
|477>   Q  -1.3290  2.1$  11.39$  13.83$
|478>   Q  0.6645  10.23$  5.51$  16.98$
|479>   Q  0.6645  9.24$  6.3$  16.13$
|480>   Q  -1.3290  9.49$  5.86$  16.78$
|481>   Q  0.6645  16.03$  5.12$  10.63$
|482>   Q  0.6645  17.28$  4.35$  11.04$
|483>   Q  -1.3290  16.66$  4.91$  11.15$
|484>   Q  0.6645  17.74$  5.77$  7.9$
|485>   Q  0.6645  16.76$  6.97$  7.87$
|486>   Q  -1.3290  16.98$  6.14$  7.88$
|487>   Q  0.6645  10.84$  15.97$  17.75$
|488>   Q  0.6645  10.52$  17.41$  17.24$
|489>   Q  -1.3290  10.87$  16.83$  17.78$
|490>   Q  0.6645  3.87$  0.85$  8.24$
|491>   Q  0.6645  3.71$  2.23$  9.06$
|492>   Q  -1.3290  3.63$  1.37$  8.91$
|493>   Q  0.6645  0.32$  9.75$  7.96$
|494>   Q  0.6645  0.6$  10.55$  6.7$
|495>   Q  -1.3290  0.28$  9.9$  7.13$
|496>   Q  0.6645  8.77$  16.45$  8.14$
|497>   Q  0.6645  10.12$  17.21$  7.92$
|498>   Q  -1.3290  9.28$  17.1$  7.93$
|499>   Q  0.6645  15.18$  21.46$  9.61$
|500>   Q  0.6645  16.5$  21.46$  10.54$
|501>   Q  -1.3290  16.02$  21.34$  9.82$
|502>   Q  0.6645  2.41$  11.05$  16.73$
|503>   Q  0.6645  2.67$  12.49$  17.22$
|504>   Q  -1.3290  2.37$  11.72$  17.26$
|505>   Q  0.6645  18.55$  17.67$  7.59$
|506>   Q  0.6645  18.45$  16.98$  6.13$
|507>   Q  -1.3290  18.28$  17.57$  6.77$
|508>   Q  0.6645  3.39$  11.35$  5.16$
|509>   Q  0.6645  4.86$  11.5$  5.8$
|510>   Q  -1.3290  4.25$  11.5$  5.19$
|511>   Q  0.6645  9.67$  18.76$  12.98$
|512>   Q  0.6645  8.38$  19.66$  13.23$
|513>   Q  -1.3290  9.07$  19.16$  13.44$
|514>   Q  0.6645  6.68$  7.08$  16.94$
|515>   Q  0.6645  6.89$  8.48$  17.61$
|516>   Q  -1.3290  6.7$  7.95$  16.97$
|517>   Q  0.6645  19.24$  14.34$  14.25$
|518>   Q  0.6645  18.21$  13.24$  14.23$
|519>   Q  -1.3290  18.99$  13.54$  14.25$
|520>   Q  0.6645  18.06$  6.48$  10.94$
|521>   Q  0.6645  19.04$  6.29$  9.76$
|522>   Q  -1.3290  18.65$  6.73$  10.38$
|523>   Q  0.6645  9.82$  15$  5.16$
|524>   Q  0.6645  8.87$  15.99$  4.61$
|525>   Q  -1.3290  9.56$  15.55$  4.57$
|526>   Q  0.6645  0.08$  7.37$  11.26$
|527>   Q  0.6645  0.71$  7.94$  10.11$
|528>   Q  -1.3290  0.6$  7.88$  10.92$
|529>   Q  0.6645  9.95$  17.19$  11.42$
|530>   Q  0.6645  11.51$  17.51$  12$
|531>   Q  -1.3290  10.59$  17.39$  12.01$
|532>   Q  0.6645  1.71$  4.72$  14.11$
|533>   Q  0.6645  2.87$  5.63$  13.65$
|534>   Q  -1.3290  2.22$  5.1$  13.52$
|535>   Q  0.6645  4.5$  8.31$  2.05$
|536>   Q  0.6645  3.02$  8.39$  1.85$
|537>   Q  -1.3290  3.8$  8.49$  1.63$
|538>   Q  0.6645  14.59$  9.66$  7.82$
|539>   Q  0.6645  15.31$  8.69$  6.88$
|540>   Q  -1.3290  14.83$  8.9$  7.55$
|541>   Q  0.6645  4.26$  7.7$  14.74$
|542>   Q  0.6645  5.06$  7.18$  13.64$
|543>   Q  -1.3290  4.37$  7.39$  13.98$
|544>   Q  0.6645  11.33$  14.53$  7.24$
|545>   Q  0.6645  11.63$  13.7$  6.06$
|546>   Q  -1.3290  11.14$  14.1$  6.56$
|547>   Q  0.6645  4.09$  6.06$  5.43$
|548>   Q  0.6645  5.49$  5.47$  5.03$
|549>   Q  -1.3290  4.81$  5.99$  4.94$
|550>   Q  0.6645  13.19$  19.35$  11.17$
|551>   Q  0.6645  13.81$  18.3$  11.9$
|552>   Q  -1.3290  13.2$  18.82$  11.81$
|553>   Q  0.6645  2.38$  9.89$  8.83$
|554>   Q  0.6645  1.6$  10.43$  10.18$
|555>   Q  -1.3290  1.68$  10.17$  9.31$
|556>   Q  0.6645  4.96$  9.07$  16.28$
|557>   Q  0.6645  3.91$  8.48$  17.16$
|558>   Q  -1.3290  4.17$  8.73$  16.45$
|559>   Q  0.6645  11.36$  17.3$  5.27$
|560>   Q  0.6645  11.93$  18.69$  4.97$
|561>   Q  -1.3290  11.88$  17.95$  5.39$
|562>   Q  0.6645  12.91$  19.25$  6.81$
|563>   Q  0.6645  13.51$  20.7$  6.73$
|564>   Q  -1.3290  13.21$  19.99$  7.13$
|565>   Q  0.6645  14.14$  16.63$  19.08$
|566>   Q  0.6645  12.78$  17.26$  18.66$
|567>   Q  -1.3290  13.47$  17.17$  19.13$
|568>   Q  0.6645  6.59$  14.77$  2.81$
|569>   Q  0.6645  6.7$  13.36$  2.34$
|570>   Q  -1.3290  6.42$  13.96$  2.83$
|571>   Q  0.6645  7.88$  4.97$  17.77$
|572>   Q  0.6645  6.71$  5.43$  18.61$
|573>   Q  -1.3290  7.08$  4.9$  18.05$
|574>   Q  0.6645  16.82$  3.26$  14.55$
|575>   Q  0.6645  17.01$  2.03$  15.61$
|576>   Q  -1.3290  17.24$  2.63$  15.01$
|577>   Q  0.6645  16.21$  17.8$  17$
|578>   Q  0.6645  17.1$  18$  18.22$
|579>   Q  -1.3290  16.94$  17.8$  17.44$
|580>   Q  0.6645  20$  12.96$  12.33$
|581>   Q  0.6645  20$  12.92$  10.71$
|582>   Q  -1.3290  20.05$  12.62$  11.53$
|583>   Q  0.6645  18.55$  9.31$  18.79$
|584>   Q  0.6645  18.68$  9.48$  17.26$
|585>   Q  -1.3290  18.66$  9.06$  18$
|586>   Q  0.6645  4.96$  6.92$  9.08$
|587>   Q  0.6645  6.12$  5.99$  8.33$
|588>   Q  -1.3290  5.4$  6.16$  8.82$
|589>   Q  0.6645  12.39$  16.35$  8.76$
|590>   Q  0.6645  11.1$  15.63$  9.2$
|591>   Q  -1.3290  11.62$  16.04$  8.66$
|592>   Q  0.6645  13.31$  4.25$  10.9$
|593>   Q  0.6645  11.93$  3.96$  10.31$
|594>   Q  -1.3290  12.63$  3.79$  10.7$
|595>   Q  0.6645  6.14$  17.46$  13.7$
|596>   Q  0.6645  7.42$  17.63$  13.08$
|597>   Q  -1.3290  6.65$  17.45$  13.04$
|598>   Q  0.6645  12.81$  20.15$  18.16$
|599>   Q  0.6645  14.12$  19.32$  18.27$
|600>   Q  -1.3290  13.66$  20.01$  18.17$
|601>   Q  0.6645  19.23$  12.14$  4.58$
|602>   Q  0.6645  19.05$  12.13$  6.05$
|603>   Q  -1.3290  19.1$  12.49$  5.31$
|604>   Q  0.6645  20.27$  6.19$  11.39$
|605>   Q  0.6645  21$  5.4$  12.4$
|606>   Q  -1.3290  20.95$  5.9$  11.73$
|607>   Q  0.6645  16.18$  8.07$  12.08$
|608>   Q  0.6645  14.75$  8.48$  12.48$
|609>   Q  -1.3290  15.35$  8.2$  11.96$
|610>   Q  0.6645  16.47$  11.16$  16.93$
|611>   Q  0.6645  16.08$  11.19$  15.5$
|612>   Q  -1.3290  16.32$  10.82$  16.19$
|613>   Q  0.6645  1.09$  12.73$  5.92$
|614>   Q  0.6645  2.34$  12.08$  6.64$
|615>   Q  -1.3290  1.69$  12.13$  6.07$
|616>   Q  0.6645  15.16$  11.35$  18.77$
|617>   Q  0.6645  16.61$  11.57$  19.24$
|618>   Q  -1.3290  15.97$  11.68$  18.7$
|619>   Q  0.6645  15.36$  12.43$  3.66$
|620>   Q  0.6645  14.35$  12.45$  2.57$
|621>   Q  -1.3290  14.78$  12.1$  3.18$
|622>   Q  0.6645  10.06$  2.12$  13.85$
|623>   Q  0.6645  9.05$  1.12$  14.68$
|624>   Q  -1.3290  9.83$  1.45$  14.36$
|625>   Q  0.6645  5.66$  1.66$  17.32$
|626>   Q  0.6645  6.14$  3.24$  17.07$
|627>   Q  -1.3290  6.05$  2.37$  16.96$
|628>   Q  0.6645  4.58$  9.6$  9.25$
|629>   Q  0.6645  4.47$  9.14$  7.79$
|630>   Q  -1.3290  4.26$  9.21$  8.58$
|631>   Q  0.6645  18.13$  13.36$  19.33$
|632>   Q  0.6645  18.8$  12.58$  20.47$
|633>   Q  -1.3290  18.24$  13.11$  20.14$
|634>   Q  0.6645  19.36$  16.37$  14.43$
|635>   Q  0.6645  19.44$  16.54$  12.95$
|636>   Q  -1.3290  19.17$  16.19$  13.66$
|637> *
|638> 
|639>                          ****END OF INPUT****
================================================================================

                     *******************************
                     * Energy+Gradient Calculation *
                     *******************************

---------------------------------
CARTESIAN COORDINATES (ANGSTROEM)
---------------------------------
  C     12.390000   11.970000   11.910000
  H     12.960000   11.920000   11.010000
  H     13.000000   11.610000   12.700000
  C     11.150000   11.130000   11.710000
  H     10.710000   11.070000   12.700000
  H     10.430000   11.760000   11.130000
  C     11.240000    9.710000   11.000000
  H     11.800000    9.030000   11.660000
  H     11.770000    9.710000   10.050000
  C      9.800000    9.060000   10.800000
  H      9.240000    8.870000   11.710000
  H      9.910000    8.100000   10.260000
  O      8.960000    9.870000   10.100000
  H      9.310000   10.040000    9.250000
  O     12.070000   13.370000   12.070000
  H     12.890000   13.860000   11.880000
  O     14.180000   14.940000   11.600000
  H     14.520000   14.280000   11.010000
  H     14.200000   15.740000   11.100000
  O     11.570000    6.560000   12.450000
  H     11.710000    6.400000   11.510000
  H     12.160000    5.870000   12.970000
  O      7.030000    8.710000    8.120000
  H      7.420000    9.240000    8.820000
  H      7.700000    8.050000    8.120000
  O     11.200000    9.930000   15.230000
  H     11.820000   10.670000   15.390000
  H     11.700000    9.480000   14.530000
  O     13.270000   16.020000   14.030000
  H     13.660000   15.760000   13.180000
  H     12.330000   15.680000   13.950000
  O     13.170000   11.820000   15.800000
  H     12.830000   12.710000   15.940000
  H     13.940000   12.070000   15.250000
  O      9.000000   12.790000    7.800000
  H      9.320000   12.810000    8.730000
  H      9.660000   13.150000    7.260000
  O     15.460000   17.610000   11.770000
  H     15.870000   17.840000   10.930000
  H     15.750000   18.290000   12.450000
  O     12.700000    8.450000   17.860000
  H     12.290000    9.040000   17.260000
  H     13.280000    9.010000   18.460000
  O     17.170000   15.300000   11.540000
  H     16.380000   15.850000   11.670000
  H     17.750000   15.560000   12.270000
  O     13.280000   11.170000    7.550000
  H     13.700000   11.900000    7.980000
  H     12.490000   10.840000    7.990000
  O      8.190000    5.890000    8.560000
  H      8.360000    6.130000    9.500000
  H      8.830000    5.240000    8.390000
  O     10.100000   10.230000   17.780000
  H     10.170000    9.970000   16.840000
  H      9.800000    9.440000   18.310000
  O     16.270000   12.520000   11.480000
  H     16.560000   11.780000   10.920000
  H     16.830000   13.290000   11.280000
  O     10.630000   15.150000   13.760000
  H     10.370000   15.820000   13.080000
  H     11.090000   14.400000   13.320000
  O     14.450000   16.570000    9.060000
  H     15.190000   17.140000    8.880000
  H     14.750000   15.720000    8.630000
  O     14.470000   17.840000   16.190000
  H     13.600000   17.690000   15.810000
  H     14.920000   18.330000   15.480000
  O     10.260000   14.220000   10.330000
  H     10.830000   13.700000   10.940000
  H      9.480000   14.460000   10.770000
  O     11.100000    4.870000    9.020000
  H     10.940000    4.640000    8.070000
  H     11.720000    5.620000    9.040000
  O     12.980000    4.810000   14.020000
  H     13.990000    4.750000   13.860000
  H     12.910000    5.270000   14.890000
  O      9.630000    3.810000   12.390000
  H     10.460000    4.330000   12.380000
  H      8.970000    4.460000   12.180000
  O      9.770000    7.590000   14.630000
  H     10.340000    7.390000   13.870000
  H      9.990000    8.520000   14.600000
  O     14.040000    6.050000   10.640000
  H     13.890000    6.320000    9.690000
  H     14.610000    6.710000   10.990000
  O      7.020000   11.130000    6.250000
  H      7.200000   10.280000    6.670000
  H      7.120000   11.830000    6.920000
  O     10.310000   10.280000    7.760000
  H      9.670000   10.870000    7.300000
  H     10.690000    9.670000    7.140000
  O      7.190000    7.520000   13.200000
  H      8.000000    7.770000   13.710000
  H      6.770000    8.370000   12.980000
  O     15.100000   14.740000   15.900000
  H     14.380000   15.170000   15.420000
  H     14.930000   14.840000   16.860000
  O     11.120000   14.170000   16.400000
  H     10.290000   13.760000   16.270000
  H     11.130000   14.810000   15.650000
  O      7.500000   11.460000   11.880000
  H      7.090000   12.090000   11.290000
  H      8.100000   10.990000   11.290000
  O     13.050000    8.630000   13.520000
  H     13.550000    8.420000   14.330000
  H     12.540000    7.820000   13.290000
  Q      5.390000    2.920000   12.430000
  Q      6.360000    3.950000   11.920000
  Q      6.160000    3.210000   12.210000
  Q     12.010000    7.130000    2.930000
  Q     12.250000    7.800000    4.220000
  Q     12.210000    7.770000    3.410000
  Q     19.910000    5.750000   14.320000
  Q     19.690000    7.280000   14.030000
  Q     19.840000    6.580000   14.510000
  Q     15.950000   13.430000   14.570000
  Q     16.160000   12.500000   13.350000
  Q     16.240000   12.740000   14.150000
  Q     20.920000   10.230000   13.270000
  Q     21.800000    9.850000   14.470000
  Q     21.280000   10.340000   14.020000
  Q     17.570000   15.170000    9.790000
  Q     17.340000   15.630000    8.270000
  Q     17.760000   15.320000    8.950000
  Q     11.120000   14.230000   19.570000
  Q     11.530000   13.910000   18.030000
  Q     11.580000   13.880000   18.930000
  Q      5.690000   10.300000   11.510000
  Q      4.430000    9.610000   11.720000
  Q      5.180000    9.660000   11.420000
  Q     10.920000   21.820000   14.100000
  Q     10.370000   20.440000   14.070000
  Q     11.000000   20.990000   14.130000
  Q      7.490000    9.610000   19.970000
  Q      6.300000   10.050000   19.020000
  Q      6.870000    9.480000   19.380000
  Q     10.060000   18.850000   18.760000
  Q      9.150000   18.430000   19.960000
  Q      9.630000   18.970000   19.490000
  Q     10.920000   20.810000   17.070000
  Q     11.150000   19.910000   15.840000
  Q     11.140000   20.070000   16.680000
  Q     15.600000   12.540000    9.160000
  Q     15.340000   13.400000    7.840000
  Q     15.150000   13.050000    8.590000
  Q     17.790000    7.060000   18.140000
  Q     16.910000    6.390000   17.010000
  Q     17.320000    6.470000   17.780000
  Q      8.170000    2.600000   17.490000
  Q      9.760000    2.330000   17.440000
  Q      9.010000    2.660000   17.750000
  Q     14.880000    5.210000    3.820000
  Q     15.540000    4.630000    5.210000
  Q     15.110000    5.200000    4.660000
  Q     17.260000   18.510000   14.370000
  Q     16.660000   19.950000   14.720000
  Q     16.780000   19.230000   14.270000
  Q      2.810000    4.050000    9.200000
  Q      4.080000    4.620000    8.620000
  Q      3.420000    4.110000    8.620000
  Q     17.490000    3.490000    6.080000
  Q     16.450000    4.250000    6.870000
  Q     16.700000    3.680000    6.310000
  Q     19.940000   12.750000    8.620000
  Q     19.480000   14.210000    8.940000
  Q     20.030000   13.550000    8.910000
  Q      4.660000   10.240000    2.310000
  Q      4.640000   11.320000    3.370000
  Q      4.770000   11.010000    2.590000
  Q     14.140000    9.070000   20.470000
  Q     13.150000   10.190000   20.240000
  Q     13.780000    9.660000   20.020000
  Q      9.340000   20.780000   11.190000
  Q     10.810000   20.230000   11.270000
  Q      9.990000   20.310000   10.950000
  Q      6.680000   15.060000    7.490000
  Q      7.840000   14.270000    8.060000
  Q      7.330000   14.900000    7.990000
  Q     17.630000   22.040000   12.750000
  Q     17.130000   20.630000   12.840000
  Q     17.230000   21.350000   12.470000
  Q     14.060000   17.500000    5.650000
  Q     15.450000   18.190000    5.590000
  Q     14.910000   17.550000    5.660000
  Q     13.690000    4.770000    5.670000
  Q     13.600000    3.710000    6.930000
  Q     13.300000    4.320000    6.340000
  Q     18.640000   17.740000   16.320000
  Q     19.720000   18.650000   15.670000
  Q     19.330000   17.930000   15.880000
  Q     20.960000    9.170000   11.360000
  Q     20.190000   10.510000   11.360000
  Q     20.300000    9.700000   11.570000
  Q     16.690000    9.800000    9.090000
  Q     15.890000    9.740000   10.360000
  Q     16.340000   10.110000    9.790000
  Q      3.700000   13.470000    4.570000
  Q      4.530000   14.340000    3.650000
  Q      3.930000   14.210000    4.250000
  Q     13.240000    2.490000    8.750000
  Q     13.180000    1.820000    7.350000
  Q     13.540000    2.260000    7.990000
  Q     12.990000   20.890000   13.340000
  Q     14.180000   21.360000   12.480000
  Q     13.700000   21.350000   13.150000
  Q     12.860000   11.570000    5.880000
  Q     13.310000   12.040000    4.500000
  Q     12.760000   11.950000    5.120000
  Q      4.470000   12.920000   15.020000
  Q      5.970000   13.140000   14.930000
  Q      5.290000   12.750000   15.200000
  Q     20.210000    5.970000    7.960000
  Q     19.670000    4.600000    7.950000
  Q     19.590000    5.410000    8.120000
  Q     13.270000    1.350000   14.160000
  Q     12.980000    2.830000   14.290000
  Q     13.020000    2.050000   14.570000
  Q     14.220000   20.790000   16.500000
  Q     14.120000   21.230000   15.100000
  Q     14.540000   20.980000   15.780000
  Q      7.420000    7.240000    2.280000
  Q      8.010000    6.780000    0.910000
  Q      8.010000    6.900000    1.760000
  Q     15.650000    8.740000    3.760000
  Q     15.540000   10.120000    3.180000
  Q     15.780000    9.320000    3.160000
  Q     18.570000   14.150000   17.170000
  Q     17.440000   15.220000   17.130000
  Q     18.080000   14.770000   17.470000
  Q      8.100000    3.500000    3.070000
  Q      8.000000    5.060000    2.700000
  Q      7.730000    4.300000    3.030000
  Q     16.290000   14.350000    4.230000
  Q     17.440000   13.370000    4.560000
  Q     16.600000   13.650000    4.510000
  Q     16.010000    5.500000   14.070000
  Q     15.810000    4.500000   12.850000
  Q     15.730000    4.770000   13.670000
  Q      6.070000    8.970000    3.730000
  Q      5.320000    7.600000    3.940000
  Q      5.650000    8.260000    3.490000
  Q     17.460000   18.250000    9.310000
  Q     16.410000   19.360000    9.610000
  Q     16.660000   18.560000    9.470000
  Q      6.080000    1.560000    8.250000
  Q      7.500000    2.230000    8.550000
  Q      6.820000    1.960000    8.060000
  Q     19.600000   10.050000   14.770000
  Q     18.230000   10.120000   15.360000
  Q     18.900000    9.720000   15.070000
  Q      7.710000   -0.230000    6.000000
  Q      6.960000    1.020000    6.220000
  Q      7.380000    0.460000    5.720000
  Q     11.110000   10.760000   19.490000
  Q     11.920000   12.010000   19.850000
  Q     11.550000   11.270000   19.980000
  Q      8.940000   18.330000   15.290000
  Q      8.260000   18.050000   16.650000
  Q      8.800000   17.900000   16.000000
  Q     10.490000   20.710000    8.790000
  Q     11.660000   20.620000    7.860000
  Q     10.970000   20.970000    8.160000
  Q     10.700000    8.220000    5.540000
  Q     11.880000    7.720000    6.520000
  Q     11.460000    8.250000    6.010000
  Q     10.510000   11.940000    2.070000
  Q     11.130000   11.450000    3.330000
  Q     10.650000   11.390000    2.630000
  Q      9.370000    6.930000    4.820000
  Q      8.880000    8.410000    4.700000
  Q      9.080000    7.670000    5.070000
  Q      0.570000    4.960000   10.710000
  Q      1.970000    4.690000   11.250000
  Q      1.350000    4.650000   10.680000
  Q     12.890000    5.980000    7.540000
  Q     13.780000    7.300000    7.800000
  Q     13.140000    6.710000    7.930000
  Q      6.420000    5.870000   10.620000
  Q      7.120000    6.490000   11.990000
  Q      6.940000    5.890000   11.310000
  Q      1.680000   11.870000   12.120000
  Q      0.320000   12.080000   11.360000
  Q      1.170000   12.050000   11.460000
  Q     15.500000   16.060000   21.260000
  Q     15.690000   15.110000   19.970000
  Q     15.920000   15.670000   20.560000
  Q      4.910000   11.630000   18.300000
  Q      5.600000   11.690000   16.880000
  Q      5.580000   11.610000   17.750000
  Q      2.090000    9.000000   16.040000
  Q      0.630000    8.890000   16.540000
  Q      1.280000    9.240000   16.120000
  Q     19.840000   18.070000   10.200000
  Q     19.860000   19.140000    9.050000
  Q     19.600000   18.430000    9.470000
  Q      4.680000   15.410000    7.170000
  Q      4.720000   15.070000    5.640000
  Q      4.990000   15.420000    6.380000
  Q     13.750000   14.230000   19.130000
  Q     15.060000   13.510000   18.730000
  Q     14.530000   14.180000   18.820000
  Q      7.080000    2.130000   13.920000
  Q      6.990000    1.380000   15.200000
  Q      7.200000    1.460000   14.410000
  Q      2.560000   12.100000    8.750000
  Q      3.990000   12.760000    8.510000
  Q      3.240000   12.390000    8.300000
  Q     21.280000   16.760000   11.910000
  Q     20.940000   18.140000   12.210000
  Q     20.780000   17.420000   11.870000
  Q     13.420000    2.230000   16.640000
  Q     14.160000    2.090000   18.050000
  Q     13.500000    2.260000   17.530000
  Q      9.380000    0.890000    5.880000
  Q     10.160000    0.290000    7.090000
  Q      9.930000    0.910000    6.540000
  Q      8.600000   10.670000    3.330000
  Q      7.610000   10.760000    4.410000
  Q      8.000000   10.370000    3.820000
  Q      7.430000    5.870000    5.740000
  Q      7.270000    4.670000    4.900000
  Q      7.160000    5.100000    5.610000
  Q     10.610000    5.030000    3.580000
  Q     10.260000    4.550000    5.030000
  Q     10.300000    5.070000    4.350000
  Q      9.420000    2.950000    6.630000
  Q      8.520000    4.060000    6.470000
  Q      9.230000    3.750000    6.680000
  Q      7.780000   15.980000   11.690000
  Q      8.180000   14.730000   12.580000
  Q      8.070000   15.200000   11.870000
  Q     17.250000    7.650000    5.310000
  Q     15.930000    6.970000    5.510000
  Q     16.460000    7.660000    5.450000
  Q     12.110000    3.210000    3.620000
  Q     12.080000    3.340000    5.000000
  Q     12.010000    2.890000    4.330000
  Q      8.320000   19.470000    5.650000
  Q      9.030000   19.790000    7.030000
  Q      8.420000   19.810000    6.440000
  Q      6.160000    1.530000   11.130000
  Q      5.000000    0.840000   10.630000
  Q      5.810000    0.870000   10.850000
  Q      3.310000    8.520000   13.150000
  Q      2.020000    8.910000   12.060000
  Q      2.710000    9.020000   12.670000
  Q      5.720000   15.150000   12.430000
  Q      4.200000   15.050000   12.760000
  Q      4.920000   14.780000   12.500000
  Q      1.940000    5.240000    5.460000
  Q      2.770000    5.150000    6.680000
  Q      2.350000    5.560000    6.090000
  Q     13.250000   20.570000    9.040000
  Q     12.600000   21.570000   10.220000
  Q     13.160000   20.940000    9.840000
  Q      9.160000   10.280000   21.710000
  Q      9.590000   11.320000   20.770000
  Q      9.030000   10.940000   21.230000
  Q      2.920000    3.150000   12.520000
  Q      3.180000    1.730000   12.710000
  Q      3.330000    2.470000   12.350000
  Q      8.560000   18.720000   10.560000
  Q      8.150000   17.910000    9.430000
  Q      8.190000   18.080000   10.240000
  Q     17.840000    6.710000   15.030000
  Q     16.330000    7.360000   15.230000
  Q     16.940000    6.730000   15.150000
  Q      6.220000   14.850000   17.280000
  Q      5.450000   16.070000   16.590000
  Q      5.590000   15.420000   17.160000
  Q     16.630000   14.700000    6.360000
  Q     15.760000   15.940000    6.610000
  Q     16.080000   15.180000    6.790000
  Q      4.160000   17.590000   15.090000
  Q      5.300000   18.540000   15.670000
  Q      4.920000   17.810000   15.410000
  Q     15.470000    8.890000   16.380000
  Q     14.280000    8.020000   16.850000
  Q     14.910000    8.280000   16.350000
  Q     10.460000    9.400000    1.480000
  Q      9.390000    8.630000    1.360000
  Q     10.000000    8.950000    1.010000
  Q     12.840000    5.340000   17.040000
  Q     12.270000    6.680000   17.130000
  Q     12.470000    5.970000   16.720000
  Q      5.450000   18.130000    8.720000
  Q      6.230000   17.810000    9.970000
  Q      5.590000   17.750000    9.460000
  Q     20.340000   12.120000   17.600000
  Q     19.940000   12.340000   16.100000
  Q     20.060000   12.560000   16.910000
  Q      8.810000    1.660000   11.520000
  Q      7.910000    0.540000   11.060000
  Q      8.630000    0.910000   11.180000
  Q      8.880000   11.900000   16.830000
  Q      8.130000   13.080000   17.230000
  Q      8.560000   12.670000   16.690000
  Q     13.020000    8.630000    1.730000
  Q     14.170000    9.000000    0.910000
  Q     13.460000    8.620000    1.020000
  Q      7.960000   17.180000    6.250000
  Q      6.550000   16.520000    5.840000
  Q      7.320000   16.940000    5.730000
  Q     10.000000   13.840000   21.380000
  Q      8.750000   13.770000   20.360000
  Q      9.460000   14.140000   20.770000
  Q      6.430000   11.800000    1.540000
  Q      7.460000   11.860000    0.440000
  Q      6.990000   12.180000    1.050000
  Q     20.390000   10.760000    7.150000
  Q     19.020000   10.120000    7.650000
  Q     19.580000   10.760000    7.430000
  Q      6.640000   10.740000   14.900000
  Q      7.150000    9.360000   15.500000
  Q      7.120000   10.040000   14.970000
  Q     17.880000    8.740000   13.600000
  Q     18.580000    8.700000   12.250000
  Q     18.030000    8.420000   12.850000
  Q      2.220000   14.640000   15.380000
  Q      2.230000   13.370000   14.580000
  Q      2.090000   14.210000   14.690000
  Q      8.420000   13.380000   14.750000
  Q      7.960000   12.610000   13.460000
  Q      7.960000   13.250000   14.030000
  Q      6.050000   14.050000    9.830000
  Q      5.140000   13.540000   10.930000
  Q      5.550000   13.500000   10.190000
  Q      1.490000   13.810000   10.520000
  Q      0.460000   14.320000    9.480000
  Q      1.140000   14.380000    9.990000
  Q      4.340000   16.240000    9.390000
  Q      3.230000   15.220000    9.560000
  Q      3.680000   15.770000    9.110000
  Q      6.620000   12.970000   18.640000
  Q      6.800000   14.160000   19.480000
  Q      7.050000   13.620000   18.940000
  Q      6.490000   20.590000   11.980000
  Q      6.950000   21.520000   13.070000
  Q      6.920000   20.810000   12.670000
  Q      9.640000    7.180000   18.450000
  Q     10.760000    7.620000   19.430000
  Q      9.960000    7.610000   19.110000
  Q     11.840000    1.840000   11.170000
  Q     10.850000    0.650000   11.340000
  Q     11.620000    1.010000   11.270000
  Q     18.510000    8.010000    7.200000
  Q     18.290000    8.030000    8.750000
  Q     18.160000    8.260000    7.940000
  Q      1.480000   11.250000   14.260000
  Q      2.520000   10.770000   13.540000
  Q      2.100000   11.390000   13.830000
  Q     10.230000    5.510000   16.980000
  Q      9.240000    6.300000   16.130000
  Q      9.490000    5.860000   16.780000
  Q     16.030000    5.120000   10.630000
  Q     17.280000    4.350000   11.040000
  Q     16.660000    4.910000   11.150000
  Q     17.740000    5.770000    7.900000
  Q     16.760000    6.970000    7.870000
  Q     16.980000    6.140000    7.880000
  Q     10.840000   15.970000   17.750000
  Q     10.520000   17.410000   17.240000
  Q     10.870000   16.830000   17.780000
  Q      3.870000    0.850000    8.240000
  Q      3.710000    2.230000    9.060000
  Q      3.630000    1.370000    8.910000
  Q      0.320000    9.750000    7.960000
  Q      0.600000   10.550000    6.700000
  Q      0.280000    9.900000    7.130000
  Q      8.770000   16.450000    8.140000
  Q     10.120000   17.210000    7.920000
  Q      9.280000   17.100000    7.930000
  Q     15.180000   21.460000    9.610000
  Q     16.500000   21.460000   10.540000
  Q     16.020000   21.340000    9.820000
  Q      2.410000   11.050000   16.730000
  Q      2.670000   12.490000   17.220000
  Q      2.370000   11.720000   17.260000
  Q     18.550000   17.670000    7.590000
  Q     18.450000   16.980000    6.130000
  Q     18.280000   17.570000    6.770000
  Q      3.390000   11.350000    5.160000
  Q      4.860000   11.500000    5.800000
  Q      4.250000   11.500000    5.190000
  Q      9.670000   18.760000   12.980000
  Q      8.380000   19.660000   13.230000
  Q      9.070000   19.160000   13.440000
  Q      6.680000    7.080000   16.940000
  Q      6.890000    8.480000   17.610000
  Q      6.700000    7.950000   16.970000
  Q     19.240000   14.340000   14.250000
  Q     18.210000   13.240000   14.230000
  Q     18.990000   13.540000   14.250000
  Q     18.060000    6.480000   10.940000
  Q     19.040000    6.290000    9.760000
  Q     18.650000    6.730000   10.380000
  Q      9.820000   15.000000    5.160000
  Q      8.870000   15.990000    4.610000
  Q      9.560000   15.550000    4.570000
  Q      0.080000    7.370000   11.260000
  Q      0.710000    7.940000   10.110000
  Q      0.600000    7.880000   10.920000
  Q      9.950000   17.190000   11.420000
  Q     11.510000   17.510000   12.000000
  Q     10.590000   17.390000   12.010000
  Q      1.710000    4.720000   14.110000
  Q      2.870000    5.630000   13.650000
  Q      2.220000    5.100000   13.520000
  Q      4.500000    8.310000    2.050000
  Q      3.020000    8.390000    1.850000
  Q      3.800000    8.490000    1.630000
  Q     14.590000    9.660000    7.820000
  Q     15.310000    8.690000    6.880000
  Q     14.830000    8.900000    7.550000
  Q      4.260000    7.700000   14.740000
  Q      5.060000    7.180000   13.640000
  Q      4.370000    7.390000   13.980000
  Q     11.330000   14.530000    7.240000
  Q     11.630000   13.700000    6.060000
  Q     11.140000   14.100000    6.560000
  Q      4.090000    6.060000    5.430000
  Q      5.490000    5.470000    5.030000
  Q      4.810000    5.990000    4.940000
  Q     13.190000   19.350000   11.170000
  Q     13.810000   18.300000   11.900000
  Q     13.200000   18.820000   11.810000
  Q      2.380000    9.890000    8.830000
  Q      1.600000   10.430000   10.180000
  Q      1.680000   10.170000    9.310000
  Q      4.960000    9.070000   16.280000
  Q      3.910000    8.480000   17.160000
  Q      4.170000    8.730000   16.450000
  Q     11.360000   17.300000    5.270000
  Q     11.930000   18.690000    4.970000
  Q     11.880000   17.950000    5.390000
  Q     12.910000   19.250000    6.810000
  Q     13.510000   20.700000    6.730000
  Q     13.210000   19.990000    7.130000
  Q     14.140000   16.630000   19.080000
  Q     12.780000   17.260000   18.660000
  Q     13.470000   17.170000   19.130000
  Q      6.590000   14.770000    2.810000
  Q      6.700000   13.360000    2.340000
  Q      6.420000   13.960000    2.830000
  Q      7.880000    4.970000   17.770000
  Q      6.710000    5.430000   18.610000
  Q      7.080000    4.900000   18.050000
  Q     16.820000    3.260000   14.550000
  Q     17.010000    2.030000   15.610000
  Q     17.240000    2.630000   15.010000
  Q     16.210000   17.800000   17.000000
  Q     17.100000   18.000000   18.220000
  Q     16.940000   17.800000   17.440000
  Q     20.000000   12.960000   12.330000
  Q     20.000000   12.920000   10.710000
  Q     20.050000   12.620000   11.530000
  Q     18.550000    9.310000   18.790000
  Q     18.680000    9.480000   17.260000
  Q     18.660000    9.060000   18.000000
  Q      4.960000    6.920000    9.080000
  Q      6.120000    5.990000    8.330000
  Q      5.400000    6.160000    8.820000
  Q     12.390000   16.350000    8.760000
  Q     11.100000   15.630000    9.200000
  Q     11.620000   16.040000    8.660000
  Q     13.310000    4.250000   10.900000
  Q     11.930000    3.960000   10.310000
  Q     12.630000    3.790000   10.700000
  Q      6.140000   17.460000   13.700000
  Q      7.420000   17.630000   13.080000
  Q      6.650000   17.450000   13.040000
  Q     12.810000   20.150000   18.160000
  Q     14.120000   19.320000   18.270000
  Q     13.660000   20.010000   18.170000
  Q     19.230000   12.140000    4.580000
  Q     19.050000   12.130000    6.050000
  Q     19.100000   12.490000    5.310000
  Q     20.270000    6.190000   11.390000
  Q     21.000000    5.400000   12.400000
  Q     20.950000    5.900000   11.730000
  Q     16.180000    8.070000   12.080000
  Q     14.750000    8.480000   12.480000
  Q     15.350000    8.200000   11.960000
  Q     16.470000   11.160000   16.930000
  Q     16.080000   11.190000   15.500000
  Q     16.320000   10.820000   16.190000
  Q      1.090000   12.730000    5.920000
  Q      2.340000   12.080000    6.640000
  Q      1.690000   12.130000    6.070000
  Q     15.160000   11.350000   18.770000
  Q     16.610000   11.570000   19.240000
  Q     15.970000   11.680000   18.700000
  Q     15.360000   12.430000    3.660000
  Q     14.350000   12.450000    2.570000
  Q     14.780000   12.100000    3.180000
  Q     10.060000    2.120000   13.850000
  Q      9.050000    1.120000   14.680000
  Q      9.830000    1.450000   14.360000
  Q      5.660000    1.660000   17.320000
  Q      6.140000    3.240000   17.070000
  Q      6.050000    2.370000   16.960000
  Q      4.580000    9.600000    9.250000
  Q      4.470000    9.140000    7.790000
  Q      4.260000    9.210000    8.580000
  Q     18.130000   13.360000   19.330000
  Q     18.800000   12.580000   20.470000
  Q     18.240000   13.110000   20.140000
  Q     19.360000   16.370000   14.430000
  Q     19.440000   16.540000   12.950000
  Q     19.170000   16.190000   13.660000

----------------------------
CARTESIAN COORDINATES (A.U.)
----------------------------
  NO LB      ZA    FRAG     MASS         X           Y           Z
   0 C     6.0000    0    12.011   23.413707   22.620022   22.506638
   1 H     1.0000    0     1.008   24.490851   22.525536   20.805885
   2 H     1.0000    0     1.008   24.566440   21.939720   23.999522
   3 C     6.0000    0    12.011   21.070446   21.032652   22.128693
   4 H     1.0000    0     1.008   20.238967   20.919268   23.999522
   5 H     1.0000    0     1.008   19.709844   22.223179   21.032652
   6 C     6.0000    0    12.011   21.240522   18.349241   20.786987
   7 H     1.0000    0     1.008   22.298768   17.064227   22.034207
   8 H     1.0000    0     1.008   22.242077   18.349241   18.991748
   9 C     6.0000    0    12.011   18.519316   17.120919   20.409042
  10 H     1.0000    0     1.008   17.461069   16.761871   22.128693
  11 H     1.0000    0     1.008   18.727186   15.306782   19.388590
  12 O     8.0000    0    15.999   16.931946   18.651597   19.086234
  13 H     1.0000    0     1.008   17.593350   18.972850   17.479967
  14 O     8.0000    0    15.999   22.808994   25.265638   22.808994
  15 H     1.0000    0     1.008   24.358570   26.191604   22.449946
  16 O     8.0000    0    15.999   26.796317   28.232508   21.920823
  17 H     1.0000    0     1.008   27.438823   26.985289   20.805885
  18 H     1.0000    0     1.008   26.834111   29.744289   20.975960
  19 O     8.0000    0    15.999   21.864131   12.396603   23.527090
  20 H     1.0000    0     1.008   22.128693   12.094247   21.750748
  21 H     1.0000    0     1.008   22.979070   11.092692   24.509748
  22 O     8.0000    0    15.999   13.284775   16.459515   15.344576
  23 H     1.0000    0     1.008   14.021768   17.461069   16.667385
  24 H     1.0000    0     1.008   14.550891   15.212295   15.344576
  25 O     8.0000    0    15.999   21.164933   18.764981   28.780529
  26 H     1.0000    0     1.008   22.336563   20.163378   29.082885
  27 H     1.0000    0     1.008   22.109796   17.914604   27.457721
  28 O     8.0000    0    15.999   25.076666   30.273413   26.512858
  29 H     1.0000    0     1.008   25.813659   29.782084   24.906590
  30 H     1.0000    0     1.008   23.300323   29.630906   26.361680
  31 O     8.0000    0    15.999   24.887693   22.336563   29.857673
  32 H     1.0000    0     1.008   24.245186   24.018419   30.122235
  33 H     1.0000    0     1.008   26.342782   22.808994   28.818324
  34 O     8.0000    0    15.999   17.007535   24.169597   14.739864
  35 H     1.0000    0     1.008   17.612248   24.207392   16.497309
  36 H     1.0000    0     1.008   18.254754   24.849899   13.719412
  37 O     8.0000    0    15.999   29.215166   33.278077   22.242077
  38 H     1.0000    0     1.008   29.989954   33.712714   20.654707
  39 H     1.0000    0     1.008   29.763187   34.563091   23.527090
  40 O     8.0000    0    15.999   23.999522   15.968186   33.750509
  41 H     1.0000    0     1.008   23.224734   17.083124   32.616673
  42 H     1.0000    0     1.008   25.095563   17.026432   34.884344
  43 O     8.0000    0    15.999   32.446598   28.912810   21.807440
  44 H     1.0000    0     1.008   30.953714   29.952159   22.053104
  45 H     1.0000    0     1.008   33.542639   29.404139   23.186940
  46 O     8.0000    0    15.999   25.095563   21.108241   14.267432
  47 H     1.0000    0     1.008   25.889248   22.487741   15.080015
  48 H     1.0000    0     1.008   23.602679   20.484631   15.098912
  49 O     8.0000    0    15.999   15.476857   11.130487   16.176056
  50 H     1.0000    0     1.008   15.798110   11.584021   17.952398
  51 H     1.0000    0     1.008   16.686282    9.902165   15.854802
  52 O     8.0000    0    15.999   19.086234   19.331898   33.599331
  53 H     1.0000    0     1.008   19.218515   18.840570   31.822988
  54 H     1.0000    0     1.008   18.519316   17.839015   34.600886
  55 O     8.0000    0    15.999   30.745844   23.659371   21.694056
  56 H     1.0000    0     1.008   31.293865   22.260974   20.635809
  57 H     1.0000    0     1.008   31.804091   25.114460   21.316111
  58 O     8.0000    0    15.999   20.087789   28.629351   26.002632
  59 H     1.0000    0     1.008   19.596460   29.895467   24.717618
  60 H     1.0000    0     1.008   20.957063   27.212056   25.171152
  61 O     8.0000    0    15.999   27.306543   31.312762   17.120919
  62 H     1.0000    0     1.008   28.704940   32.389906   16.780768
  63 H     1.0000    0     1.008   27.873460   29.706495   16.308337
  64 O     8.0000    0    15.999   27.344337   33.712714   30.594666
  65 H     1.0000    0     1.008   25.700275   33.429255   29.876570
  66 H     1.0000    0     1.008   28.194714   34.638680   29.252961
  67 O     8.0000    0    15.999   19.388590   26.871906   19.520871
  68 H     1.0000    0     1.008   20.465734   25.889248   20.673604
  69 H     1.0000    0     1.008   17.914604   27.325440   20.352350
  70 O     8.0000    0    15.999   20.975960    9.202966   17.045330
  71 H     1.0000    0     1.008   20.673604    8.768329   15.250090
  72 H     1.0000    0     1.008   22.147590   10.620261   17.083124
  73 O     8.0000    0    15.999   24.528645    9.089583   26.493960
  74 H     1.0000    0     1.008   26.437269    8.976199   26.191604
  75 H     1.0000    0     1.008   24.396364    9.958857   28.138022
  76 O     8.0000    0    15.999   18.198063    7.199857   23.413707
  77 H     1.0000    0     1.008   19.766535    8.182514   23.394810
  78 H     1.0000    0     1.008   16.950843    8.428179   23.016864
  79 O     8.0000    0    15.999   18.462624   14.343021   27.646693
  80 H     1.0000    0     1.008   19.539768   13.965076   26.210501
  81 H     1.0000    0     1.008   18.878364   16.100467   27.590002
  82 O     8.0000    0    15.999   26.531755   11.432843   20.106686
  83 H     1.0000    0     1.008   26.248296   11.943069   18.311446
  84 H     1.0000    0     1.008   27.608899   12.680062   20.768090
  85 O     8.0000    0    15.999   13.265877   21.032652   11.810788
  86 H     1.0000    0     1.008   13.606028   19.426385   12.604473
  87 H     1.0000    0     1.008   13.454850   22.355460   13.076905
  88 O     8.0000    0    15.999   19.483076   19.426385   14.664275
  89 H     1.0000    0     1.008   18.273652   20.541323   13.795001
  90 H     1.0000    0     1.008   20.201172   18.273652   13.492645
  91 O     8.0000    0    15.999   13.587131   14.210741   24.944385
  92 H     1.0000    0     1.008   15.117809   14.683172   25.908145
  93 H     1.0000    0     1.008   12.793446   15.817008   24.528645
  94 O     8.0000    0    15.999   28.534865   27.854563   30.046646
  95 H     1.0000    0     1.008   27.174262   28.667145   29.139577
  96 H     1.0000    0     1.008   28.213611   28.043536   31.860783
  97 O     8.0000    0    15.999   21.013755   26.777419   30.991509
  98 H     1.0000    0     1.008   19.445282   26.002632   30.745844
  99 H     1.0000    0     1.008   21.032652   27.986844   29.574214
 100 O     8.0000    0    15.999   14.172946   21.656261   22.449946
 101 H     1.0000    0     1.008   13.398158   22.846789   21.335008
 102 H     1.0000    0     1.008   15.306782   20.768090   21.335008
 103 O     8.0000    0    15.999   24.660926   16.308337   25.549097
 104 H     1.0000    0     1.008   25.605789   15.911494   27.079775
 105 H     1.0000    0     1.008   23.697166   14.777658   25.114460
 106 Q     0.6645    0     0.000   10.185624    5.518000   23.489296
 107 Q     0.6645    0     0.000   12.018658    7.464418   22.525536
 108 Q    -1.3290    0     0.000   11.640713    6.066021   23.073556
 109 Q     0.6645    0     0.000   22.695611   13.473747    5.536898
 110 Q     0.6645    0     0.000   23.149145   14.739864    7.974644
 111 Q    -1.3290    0     0.000   23.073556   14.683172    6.443966
 112 Q     0.6645    0     0.000   37.624447   10.865925   27.060878
 113 Q     0.6645    0     0.000   37.208708   13.757206   26.512858
 114 Q    -1.3290    0     0.000   37.492166   12.434398   27.419926
 115 Q     0.6645    0     0.000   30.141132   25.379022   27.533310
 116 Q     0.6645    0     0.000   30.537974   23.621577   25.227844
 117 Q    -1.3290    0     0.000   30.689152   24.075111   26.739625
 118 Q     0.6645    0     0.000   39.533071   19.331898   25.076666
 119 Q     0.6645    0     0.000   41.196030   18.613802   27.344337
 120 Q    -1.3290    0     0.000   40.213372   19.539768   26.493960
 121 Q     0.6645    0     0.000   33.202488   28.667145   18.500419
 122 Q     0.6645    0     0.000   32.767851   29.536419   15.628035
 123 Q    -1.3290    0     0.000   33.561536   28.950604   16.913049
 124 Q     0.6645    0     0.000   21.013755   26.890803   36.981940
 125 Q     0.6645    0     0.000   21.788542   26.286091   34.071762
 126 Q    -1.3290    0     0.000   21.883029   26.229399   35.772516
 127 Q     0.6645    0     0.000   10.752542   19.464179   21.750748
 128 Q     0.6645    0     0.000    8.371487   18.160268   22.147590
 129 Q    -1.3290    0     0.000    9.788781   18.254754   21.580672
 130 Q     0.6645    0     0.000   20.635809   41.233824   26.645138
 131 Q     0.6645    0     0.000   19.596460   38.626002   26.588447
 132 Q    -1.3290    0     0.000   20.786987   39.665352   26.701830
 133 Q     0.6645    0     0.000   14.154049   18.160268   37.737831
 134 Q     0.6645    0     0.000   11.905275   18.991748   35.942591
 135 Q    -1.3290    0     0.000   12.982419   17.914604   36.622892
 136 Q     0.6645    0     0.000   19.010645   35.621338   35.451262
 137 Q     0.6645    0     0.000   17.290994   34.827653   37.718934
 138 Q    -1.3290    0     0.000   18.198063   35.848105   36.830762
 139 Q     0.6645    0     0.000   20.635809   39.325201   32.257625
 140 Q     0.6645    0     0.000   21.070446   37.624447   29.933262
 141 Q    -1.3290    0     0.000   21.051549   37.926804   31.520632
 142 Q     0.6645    0     0.000   29.479728   23.697166   17.309891
 143 Q     0.6645    0     0.000   28.988399   25.322330   14.815453
 144 Q    -1.3290    0     0.000   28.629351   24.660926   16.232747
 145 Q     0.6645    0     0.000   33.618228   13.341467   34.279632
 146 Q     0.6645    0     0.000   31.955269   12.075350   32.144242
 147 Q    -1.3290    0     0.000   32.730057   12.226528   33.599331
 148 Q     0.6645    0     0.000   15.439063    4.913288   33.051310
 149 Q     0.6645    0     0.000   18.443727    4.403062   32.956824
 150 Q    -1.3290    0     0.000   17.026432    5.026672   33.542639
 151 Q     0.6645    0     0.000   28.119125    9.845473    7.218754
 152 Q     0.6645    0     0.000   29.366344    8.749432    9.845473
 153 Q    -1.3290    0     0.000   28.553762    9.826576    8.806124
 154 Q     0.6645    0     0.000   32.616673   34.978831   27.155365
 155 Q     0.6645    0     0.000   31.482837   37.700036   27.816769
 156 Q    -1.3290    0     0.000   31.709605   36.339434   26.966392
 157 Q     0.6645    0     0.000    5.310130    7.653391   17.385480
 158 Q     0.6645    0     0.000    7.710083    8.730535   16.289439
 159 Q    -1.3290    0     0.000    6.462863    7.766774   16.289439
 160 Q     0.6645    0     0.000   33.051310    6.595144   11.489535
 161 Q     0.6645    0     0.000   31.085995    8.031336   12.982419
 162 Q    -1.3290    0     0.000   31.558426    6.954192   11.924172
 163 Q     0.6645    0     0.000   37.681139   24.094008   16.289439
 164 Q     0.6645    0     0.000   36.811865   26.853008   16.894152
 165 Q    -1.3290    0     0.000   37.851214   25.605789   16.837460
 166 Q     0.6645    0     0.000    8.806124   19.350796    4.365267
 167 Q     0.6645    0     0.000    8.768329   21.391700    6.368377
 168 Q    -1.3290    0     0.000    9.013994   20.805885    4.894391
 169 Q     0.6645    0     0.000   26.720728   17.139816   38.682694
 170 Q     0.6645    0     0.000   24.849899   19.256309   38.248057
 171 Q    -1.3290    0     0.000   26.040426   18.254754   37.832317
 172 Q     0.6645    0     0.000   17.650042   39.268509   21.146035
 173 Q     0.6645    0     0.000   20.427940   38.229160   21.297214
 174 Q    -1.3290    0     0.000   18.878364   38.380338   20.692501
 175 Q     0.6645    0     0.000   12.623371   28.459276   14.154049
 176 Q     0.6645    0     0.000   14.815453   26.966392   15.231193
 177 Q    -1.3290    0     0.000   13.851693   28.156919   15.098912
 178 Q     0.6645    0     0.000   33.315872   41.649564   24.094008
 179 Q     0.6645    0     0.000   32.371009   38.985050   24.264084
 180 Q    -1.3290    0     0.000   32.559981   40.345653   23.564885
 181 Q     0.6645    0     0.000   26.569549   33.070207   10.676953
 182 Q     0.6645    0     0.000   29.196269   34.374118   10.563569
 183 Q    -1.3290    0     0.000   28.175817   33.164694   10.695850
 184 Q     0.6645    0     0.000   25.870351    9.013994   10.714747
 185 Q     0.6645    0     0.000   25.700275    7.010884   13.095802
 186 Q    -1.3290    0     0.000   25.133358    8.163617   11.980864
 187 Q     0.6645    0     0.000   35.224495   33.523742   30.840331
 188 Q     0.6645    0     0.000   37.265399   35.243392   29.612009
 189 Q    -1.3290    0     0.000   36.528406   33.882790   30.008851
 190 Q     0.6645    0     0.000   39.608660   17.328789   21.467289
 191 Q     0.6645    0     0.000   38.153571   19.861022   21.467289
 192 Q    -1.3290    0     0.000   38.361441   18.330343   21.864131
 193 Q     0.6645    0     0.000   31.539529   18.519316   17.177611
 194 Q     0.6645    0     0.000   30.027748   18.405933   19.577563
 195 Q    -1.3290    0     0.000   30.878125   19.105131   18.500419
 196 Q     0.6645    0     0.000    6.991987   25.454611    8.636048
 197 Q     0.6645    0     0.000    8.560459   27.098673    6.897500
 198 Q    -1.3290    0     0.000    7.426624   26.853008    8.031336
 199 Q     0.6645    0     0.000   25.019974    4.705418   16.535104
 200 Q     0.6645    0     0.000   24.906590    3.439302   13.889487
 201 Q    -1.3290    0     0.000   25.586892    4.270781   15.098912
 202 Q     0.6645    0     0.000   24.547542   39.476379   25.208947
 203 Q     0.6645    0     0.000   26.796317   40.364550   23.583782
 204 Q    -1.3290    0     0.000   25.889248   40.345653   24.849899
 205 Q     0.6645    0     0.000   24.301878   21.864131   11.111590
 206 Q     0.6645    0     0.000   25.152255   22.752303    8.503768
 207 Q    -1.3290    0     0.000   24.112905   22.582227    9.675398
 208 Q     0.6645    0     0.000    8.447076   24.415262   28.383687
 209 Q     0.6645    0     0.000   11.281665   24.831001   28.213611
 210 Q    -1.3290    0     0.000    9.996651   24.094008   28.723837
 211 Q     0.6645    0     0.000   38.191365   11.281665   15.042220
 212 Q     0.6645    0     0.000   37.170913    8.692740   15.023323
 213 Q    -1.3290    0     0.000   37.019735   10.223418   15.344576
 214 Q     0.6645    0     0.000   25.076666    2.551130   26.758522
 215 Q     0.6645    0     0.000   24.528645    5.347925   27.004186
 216 Q    -1.3290    0     0.000   24.604234    3.873939   27.533310
 217 Q     0.6645    0     0.000   26.871906   39.287406   31.180481
 218 Q     0.6645    0     0.000   26.682933   40.118886   28.534865
 219 Q    -1.3290    0     0.000   27.476618   39.646454   29.819878
 220 Q     0.6645    0     0.000   14.021768   13.681617    4.308576
 221 Q     0.6645    0     0.000   15.136706   12.812343    1.719651
 222 Q    -1.3290    0     0.000   15.136706   13.039110    3.325918
 223 Q     0.6645    0     0.000   29.574214   16.516206    7.105370
 224 Q     0.6645    0     0.000   29.366344   19.124028    6.009329
 225 Q    -1.3290    0     0.000   29.819878   17.612248    5.971535
 226 Q     0.6645    0     0.000   35.092214   26.739625   32.446598
 227 Q     0.6645    0     0.000   32.956824   28.761632   32.371009
 228 Q    -1.3290    0     0.000   34.166249   27.911255   33.013516
 229 Q     0.6645    0     0.000   15.306782    6.614041    5.801459
 230 Q     0.6645    0     0.000   15.117809    9.562014    5.102261
 231 Q    -1.3290    0     0.000   14.607583    8.125822    5.725870
 232 Q     0.6645    0     0.000   30.783639   27.117570    7.993542
[...]
 320   Q   :    0.104618884    0.276289810    0.030006678
 321   Q   :    0.043340759   -0.131689558   -0.231737505
 322   Q   :   -0.149973423   -0.142431581    0.220465508
 323   Q   :    0.128131882   -0.026026762   -0.285793379
 324   Q   :    0.003394212   -0.173174109    0.204418184
 325   Q   :   -0.122062151    0.192872794    0.073887151
 326   Q   :    0.050812573   -0.279759653   -0.029600189
 327   Q   :   -0.269646497    0.100526973   -0.086413058
 328   Q   :    0.217089330    0.175091490    0.117050819
 329   Q   :   -0.091883821    0.259003723   -0.047138884
 330   Q   :    0.037039498   -0.132929506    0.223221125
 331   Q   :    0.050762259   -0.119776092   -0.177584034
 332   Q   :    0.333394014   -0.022553468   -0.051462958
 333   Q   :   -0.141154523   -0.205686727    0.023986397
 334   Q   :   -0.177769330    0.230472009    0.032270618
 335   Q   :    0.047757413    0.173705905   -0.304374302
 336   Q   :    0.024154093    0.196796840    0.231196647
 337   Q   :   -0.078738969   -0.373558123    0.066445943
 338   Q   :   -0.012344223   -0.115469244   -0.256417986
 339   Q   :    0.220479809   -0.018094879    0.197023483
 340   Q   :   -0.206431076    0.134056304    0.059301630
 341   Q   :    0.127082460    0.271024549    0.102505312
 342   Q   :   -0.275228572    0.007954849   -0.068388975
 343   Q   :    0.145933026   -0.290102951   -0.033980346
 344   Q   :    0.146563431   -0.112594444    0.117308208
 345   Q   :   -0.164227024   -0.017742646   -0.148173492
 346   Q   :    0.007104293    0.136091495    0.027319047
 347   Q   :    0.226035198    0.116791135   -0.015696956
 348   Q   :   -0.278612028    0.121614494    0.107617777
 349   Q   :    0.051380437   -0.231745661   -0.083816782
 350   Q   :   -0.150707938   -0.144276479   -0.240501764
 351   Q   :    0.151114770   -0.157489683    0.189425345
 352   Q   :   -0.012748855    0.305514031    0.047071510
 353   Q   :    0.019765915   -0.097549641   -0.225805902
 354   Q   :   -0.149687576    0.161634775    0.097648859
 355   Q   :    0.121944329   -0.054708660    0.134874911
 356   Q   :    0.065850336   -0.248645064    0.170870063
 357   Q   :    0.217755011    0.129171613   -0.168118839
 358   Q   :   -0.288628294    0.121818984    0.000726032
 359   Q   :   -0.169406329    0.250970615    0.081548834
 360   Q   :   -0.068591248   -0.251500851    0.144550211
 361   Q   :    0.228253457   -0.005954629   -0.230474934
 362   Q   :    0.144639044    0.255727678    0.113837997
 363   Q   :   -0.016042239   -0.041721784   -0.280448796
 364   Q   :   -0.137876830   -0.212158313    0.172151114
 365   Q   :    0.228627146    0.005506507   -0.036811577
 366   Q   :   -0.169143345    0.194548144    0.012108094
 367   Q   :   -0.049157107   -0.192905597    0.015657366
 368   Q   :    0.216191350   -0.183844441    0.025162758
 369   Q   :   -0.029634672    0.190971376   -0.179476724
 370   Q   :   -0.185219865   -0.011683030    0.154449275
 371   Q   :    0.192187936   -0.146166906   -0.148829066
 372   Q   :   -0.091771266    0.245632204   -0.059957809
 373   Q   :   -0.095654405   -0.103648771    0.208264356
 374   Q   :   -0.256385372   -0.062631872   -0.108111167
 375   Q   :    0.115899627    0.243205111    0.079297916
 376   Q   :    0.135910795   -0.174430352    0.031908442
 377   Q   :    0.197121188    0.213264287    0.015964602
 378   Q   :   -0.203101403   -0.077750360    0.171201829
 379   Q   :    0.004101963   -0.144234624   -0.177810297
 380   Q   :    0.165058324    0.171158762    0.213657735
 381   Q   :   -0.267336621   -0.126360653    0.185522766
 382   Q   :    0.106015301   -0.044896574   -0.402944255
 383   Q   :    0.151791580   -0.247873916    0.145227018
 384   Q   :   -0.066567240    0.222298670    0.150459110
 385   Q   :   -0.089604502    0.026640826   -0.291246303
 386   Q   :   -0.031012528    0.140868647   -0.253008586
 387   Q   :    0.240962250    0.034450716    0.174579041
 388   Q   :   -0.210902313   -0.165324301    0.074935017
 389   Q   :    0.088126532   -0.160017688    0.219702803
 390   Q   :   -0.039499154   -0.098116925   -0.263634876
 391   Q   :   -0.042672060    0.250733315    0.047584267
 392   Q   :    0.047492023    0.262529729    0.112651058
 393   Q   :   -0.274725697   -0.123567364   -0.043192822
 394   Q   :    0.226880187   -0.140158893   -0.069251251
 395   Q   :    0.101693675   -0.250113355    0.058133805
 396   Q   :   -0.168067501    0.151026952    0.217552364
 397   Q   :    0.057411431    0.089648921   -0.275903786
 398   Q   :   -0.136072325    0.018917236    0.251137599
 399   Q   :    0.280292439    0.160064928   -0.026636010
 400   Q   :   -0.143838118   -0.173792843   -0.235455796
 401   Q   :    0.205147836    0.071800095    0.170094461
 402   Q   :   -0.209368125   -0.120069966    0.042061555
 403   Q   :    0.002368596    0.054697456   -0.216504934
 404   Q   :    0.173423452   -0.110640559    0.193222643
 405   Q   :   -0.194838646   -0.114741694   -0.102962087
 406   Q   :    0.016106978    0.229004572   -0.082861528
 407   Q   :   -0.174036345   -0.136587163    0.160865110
 408   Q   :    0.168149273   -0.130755011   -0.218819097
 409   Q   :    0.018717733    0.263630893    0.039334729
 410   Q   :    0.268716193   -0.014103808   -0.096013493
 411   Q   :   -0.151907668   -0.196511228    0.056755776
 412   Q   :   -0.112666328    0.205429896    0.042128545
 413   Q   :   -0.174563870    0.227178536   -0.008057240
 414   Q   :   -0.003581461   -0.206104885    0.172606015
 415   Q   :    0.179712856   -0.012867123   -0.168317796
 416   Q   :   -0.056259794    0.121776186    0.260841849
 417   Q   :    0.167448874    0.092504673   -0.177295742
 418   Q   :   -0.118817249   -0.217426912   -0.082033208
 419   Q   :    0.062247056    0.144976784    0.276023344
 420   Q   :    0.061127279   -0.266462964   -0.003974056
 421   Q   :   -0.123383026    0.127619708   -0.267119018
 422   Q   :    0.154163425    0.039422338    0.215700231
 423   Q   :    0.012546469   -0.202603177   -0.171819463
 424   Q   :   -0.156797369    0.167247744   -0.041378903
 425   Q   :    0.183116303    0.208126550   -0.118277456
 426   Q   :   -0.128975459    0.014230653    0.241024034
 427   Q   :   -0.055378479   -0.227211081   -0.127844616
 428   Q   :    0.109037548   -0.190621739    0.166138132
 429   Q   :   -0.239206472   -0.039806910   -0.168833371
 430   Q   :    0.126367967    0.239864061   -0.003979294
 431   Q   :    0.208441453    0.128644552    0.104675507
 432   Q   :   -0.133945921   -0.191512534    0.175494118
 433   Q   :   -0.082283673    0.052611008   -0.271716152
 434   Q   :   -0.155336705   -0.206932718   -0.089392268
 435   Q   :   -0.114790096    0.206748928    0.221263378
 436   Q   :    0.272827737    0.009341152   -0.117727212
 437   Q   :   -0.147560094   -0.055660889   -0.239112557
 438   Q   :    0.007740588    0.282001654    0.143518100
 439   Q   :    0.127177865   -0.219655371    0.092338900
 440   Q   :   -0.090306961   -0.139303479   -0.219887434
 441   Q   :    0.264253595   -0.002956064    0.094643535
 442   Q   :   -0.173687464    0.136325872    0.137626480
 443   Q   :    0.051549855    0.267630594   -0.034186920
 444   Q   :   -0.256415494   -0.104476325    0.019283520
 445   Q   :    0.205319593   -0.168845040    0.016232857
 446   Q   :    0.130771901   -0.090211939   -0.243067716
 447   Q   :    0.053627626   -0.078090983    0.246358851
 448   Q   :   -0.182089434    0.168512960   -0.014736170
 449   Q   :   -0.278713281   -0.079372222    0.192805479
 450   Q   :    0.145488580   -0.232799774   -0.097987135
 451   Q   :    0.134988222    0.320400537   -0.084185222
 452   Q   :    0.256046274   -0.107683506    0.066270768
 453   Q   :   -0.086875612    0.160882777   -0.235502170
 454   Q   :   -0.167830101   -0.060127588    0.164388277
 455   Q   :   -0.199525916    0.058318530   -0.185310772
 456   Q   :    0.214555300   -0.196053914   -0.053413171
 457   Q   :   -0.009561376    0.137293826    0.232306928
 458   Q   :    0.255321361   -0.117220733   -0.001889491
 459   Q   :   -0.061790164    0.260955371   -0.005945812
 460   Q   :   -0.210693580   -0.142077638    0.010294880
 461   Q   :   -0.017325052   -0.276874728   -0.022587336
 462   Q   :   -0.110191649    0.173302099   -0.170302174
 463   Q   :    0.125850919    0.100826266    0.200061396
 464   Q   :    0.089329088   -0.152047507   -0.214087476
 465   Q   :    0.039156094    0.248761665    0.041932194
 466   Q   :   -0.130607709   -0.103735831    0.174870622
 467   Q   :    0.008082471   -0.043550373    0.282545297
 468   Q   :    0.109483328    0.228724508   -0.130523478
 469   Q   :   -0.131788063   -0.195754852   -0.154594998
 470   Q   :   -0.153314688   -0.207865377    0.076565684
 471   Q   :    0.276258343    0.038390623   -0.001011912
 472   Q   :   -0.112325427    0.181636584   -0.077903690
 473   Q   :   -0.256525400    0.041349463   -0.057600199
 474   Q   :    0.132883334    0.037369136    0.215744502
 475   Q   :    0.125072516   -0.064053968   -0.172528418
 476   Q   :    0.034294819   -0.206162008   -0.186094147
 477   Q   :    0.125790551    0.288827246   -0.032942758
 478   Q   :   -0.159164451   -0.080640894    0.217926527
 479   Q   :    0.086522494    0.019826712    0.256068696
 480   Q   :    0.057569332   -0.188635637   -0.187390919
 481   Q   :   -0.148836732    0.170091195   -0.073070285
 482   Q   :   -0.254061244   -0.047350181   -0.001201039
 483   Q   :    0.181061075   -0.001316347    0.206282942
 484   Q   :    0.079887175    0.044660162   -0.190071401
 485   Q   :    0.179744833   -0.105998953   -0.147829120
 486   Q   :   -0.186056054    0.143286901   -0.067250702
 487   Q   :    0.007715703   -0.036800330    0.213054858
 488   Q   :   -0.005788180   -0.268902704    0.005294880
 489   Q   :    0.060010094    0.163416464    0.200392684
 490   Q   :   -0.053799912    0.090780867   -0.209444526
 491   Q   :    0.075365622    0.275086571    0.002283823
 492   Q   :   -0.270226421   -0.086927475   -0.008166644
 493   Q   :    0.202322025   -0.189324016    0.013807724
 494   Q   :   -0.181927002   -0.095753110    0.174959785
 495   Q   :    0.124315180   -0.146958022   -0.191343210
 496   Q   :    0.054583846    0.253852994    0.028653594
 497   Q   :    0.068942400   -0.176617825    0.205472880
 498   Q   :   -0.254131191    0.158445637    0.029790760
 499   Q   :    0.183602953    0.013853059   -0.245007396
 500   Q   :   -0.219441552   -0.217541915    0.117816798
 501   Q   :    0.020986082    0.002302134   -0.300746178
 502   Q   :    0.189384217    0.203733487    0.177206022
 503   Q   :   -0.176129765   -0.058822120   -0.167999040
 504   Q   :    0.220634133    0.017624039   -0.011424042
 505   Q   :   -0.037009179    0.033441111    0.170607681
 506   Q   :   -0.154248374   -0.118420958    0.201189363
 507   Q   :    0.212581178    0.167607746    0.062254398
 508   Q   :   -0.062698797   -0.046480774   -0.255550511
 509   Q   :    0.223650355   -0.061661408    0.146434336
 510   Q   :   -0.301244695   -0.045497651    0.103267772
 511   Q   :    0.062716219    0.105137231   -0.266027439
 512   Q   :   -0.064236925    0.259101994    0.085851153
 513   Q   :    0.156821784   -0.058860740   -0.217024961
 514   Q   :   -0.088319769   -0.187121763    0.139394840
 515   Q   :   -0.025891764    0.107337971    0.260307333
 516   Q   :    0.280970302   -0.077765320   -0.123384411
 517   Q   :   -0.244926955   -0.042860242   -0.140609750
 518   Q   :    0.080039135    0.138010149    0.238992171
 519   Q   :    0.200775378   -0.145801428   -0.181662771
 520   Q   :   -0.268551252    0.009914418   -0.059706610
 521   Q   :   -0.202121578    0.012855828    0.156483482
 522   Q   :    0.202097473   -0.167583352    0.030859774
 523   Q   :   -0.003573063    0.143585277   -0.190144161
 524   Q   :    0.007440286    0.173527943   -0.227737181
 525   Q   :    0.231892246   -0.191385599    0.017562199
 526   Q   :   -0.240802918    0.018052034    0.220213057
 527   Q   :    0.193126552   -0.068757613   -0.122575203
 528   Q   :   -0.007681889    0.061856124    0.234817386
 529   Q   :   -0.185829883    0.005437381   -0.106309400
 530   Q   :    0.227847186    0.106222758   -0.040254083
 531   Q   :   -0.101687796   -0.098992527    0.302813521
 532   Q   :   -0.123408216    0.002779185   -0.255840827
 533   Q   :   -0.180357660   -0.208835626   -0.051626667
 534   Q   :    0.013830076    0.249810023   -0.144474473
 535   Q   :    0.158946186   -0.044528522    0.195122830
 536   Q   :   -0.094007589   -0.220403403   -0.113994783
 537   Q   :    0.087748006    0.218386665   -0.136076283
 538   Q   :    0.023129210   -0.002558529    0.235886957
 539   Q   :    0.209941418   -0.181613846   -0.030466308
 540   Q   :   -0.225741360    0.021664639   -0.175127739
 541   Q   :    0.019018705    0.161458937    0.207459672
 542   Q   :    0.069195289    0.303503258   -0.019400346
 543   Q   :    0.108661141   -0.197608178   -0.170709290
 544   Q   :   -0.174170529   -0.104955424    0.199593572
 545   Q   :    0.247949368    0.043819210   -0.078593327
 546   Q   :   -0.114552249    0.193815867    0.183394759
 547   Q   :   -0.135592480   -0.233587199   -0.095000139
 548   Q   :   -0.129406716    0.174414460   -0.131921970
 549   Q   :   -0.085894739   -0.187305307    0.188607614
 550   Q   :    0.219962347    0.005167797   -0.052942884
 551   Q   :   -0.234851041    0.008577050   -0.136901631
 552   Q   :    0.047997320    0.085364490    0.295059235
 553   Q   :    0.185774223   -0.089891034   -0.147986382
 554   Q   :   -0.013988265    0.118423706    0.236244233
 555   Q   :   -0.023083047    0.092468918   -0.237435740
 556   Q   :    0.036324704   -0.204691623    0.009028563
 557   Q   :   -0.043865125    0.111588188    0.286060429
 558   Q   :    0.000119553    0.166404897   -0.232022709
 559   Q   :    0.044828438   -0.269299651   -0.054289709
 560   Q   :   -0.108578988    0.198113490    0.070542876
 561   Q   :    0.204284421   -0.038771001   -0.141812515
 562   Q   :   -0.096979497   -0.152877763    0.065114050
 563   Q   :    0.264567851    0.103650574    0.048964827
 564   Q   :   -0.154744614   -0.121722549    0.175618848
 565   Q   :   -0.105257659    0.025505680   -0.223654134
 566   Q   :    0.224143299    0.160510680    0.062992281
 567   Q   :   -0.251905033    0.072683701   -0.135966069
 568   Q   :    0.034412433   -0.236485719    0.085267303
 569   Q   :   -0.159085490    0.008358262    0.239271210
 570   Q   :    0.323286176    0.075190583    0.035959771
 571   Q   :   -0.165957162   -0.080457918   -0.281175411
 572   Q   :   -0.275833587    0.040950207   -0.000371793
 573   Q   :    0.157088760   -0.247220711    0.032665492
 574   Q   :    0.121366349    0.206807038   -0.018013388
 575   Q   :    0.044791938   -0.148498960   -0.273447104
 576   Q   :   -0.018977447   -0.142611769    0.251341375
 577   Q   :   -0.018001455    0.294269025    0.022217301
 578   Q   :   -0.268887897    0.094095774   -0.116399794
 579   Q   :   -0.007908948   -0.181168126    0.242710366
 580   Q   :    0.283134362    0.079917376   -0.120865293
 581   Q   :    0.261010649   -0.040881477    0.043232779
 582   Q   :   -0.186562730    0.096579901    0.184853559
 583   Q   :   -0.074696264   -0.050960051   -0.224178216
 584   Q   :    0.060233381    0.126515461    0.244995534
 585   Q   :   -0.093297319    0.138955773   -0.246692888
 586   Q   :    0.029933173   -0.267946263   -0.001304981
 587   Q   :   -0.195403227    0.201981638   -0.037543392
 588   Q   :    0.190347388   -0.014174570    0.163590827
 589   Q   :   -0.006765996   -0.183616607   -0.140368799
 590   Q   :   -0.237285289   -0.098432483    0.032282458
 591   Q   :    0.211418791   -0.055275087    0.189527171
 592   Q   :    0.028613374    0.150638414   -0.215475985
 593   Q   :    0.199306799    0.127491302    0.160065634
 594   Q   :   -0.153943716    0.148524869   -0.221348472
 595   Q   :   -0.050240424   -0.277804277    0.047544058
 596   Q   :    0.061948687    0.219071395   -0.163088301
 597   Q   :   -0.209439485   -0.084791087    0.096587017
 598   Q   :    0.160872912   -0.137729484    0.072946883
 599   Q   :   -0.122512574   -0.211949376    0.114960191
 600   Q   :    0.016057870    0.250488324    0.033829480
 601   Q   :    0.093284517   -0.042398909   -0.151212916
 602   Q   :    0.115375133    0.146523216    0.220440781
 603   Q   :    0.087052819   -0.015216385   -0.298345566
 604   Q   :   -0.196418632   -0.129326389    0.069067958
 605   Q   :   -0.022003289    0.050267987   -0.270649836
 606   Q   :    0.209264969   -0.206283909    0.099131752
 607   Q   :   -0.186202877    0.155205694    0.175434623
 608   Q   :    0.083076967    0.066233627    0.277158867
 609   Q   :    0.092519786    0.123080515   -0.235112008
 610   Q   :   -0.179286774   -0.193121069   -0.039974168

Difference to translation invariance:
           :   -0.0000077532   -0.0001094632    0.0000434514

Difference to rotation invariance:
           :    0.0008110980    0.0046418577    0.0035193223

Norm of the cartesian gradient     ...    6.2094299994
RMS gradient                       ...    0.1451530583
MAX gradient                       ...    0.4029442548

-------
TIMINGS
-------

Total SCF gradient time            ...      192.746 sec

One electron gradient       ....      24.752 sec  ( 12.8%)
RI-J Coulomb gradient       ....      10.415 sec  (  5.4%)
COSX gradient               ....     119.185 sec  ( 61.8%)
XC gradient                 ....      15.931 sec  (  8.3%)

Maximum memory used throughout the entire SCFGRAD-calculation: 794.9 MB

                            ***************************************
                            *     ORCA property calculations      *
                            ***************************************

                                    ---------------------
                                    Active property flags
                                    ---------------------
   (+) Dipole Moment


------------------------------------------------------------------------------
                       ORCA ELECTRIC PROPERTIES CALCULATION
------------------------------------------------------------------------------

Dipole Moment Calculation                       ... on
Quadrupole Moment Calculation                   ... off
Polarizability Calculation                      ... off
GBWName                                         ... final014.orca.gbw
Electron density                                ... final014.orca.scfp
The origin for moment calculation is the CENTER OF MASS  = (21.937076, 20.819314 22.808595)

-------------
DIPOLE MOMENT
-------------
                                X             Y             Z
Electronic contribution:     -0.68622       1.64910      -0.38844
Nuclear contribution   :     12.39247       8.68475       3.57784
                        -----------------------------------------
Total Dipole Moment    :     11.70625      10.33386       3.18940
                        -----------------------------------------
Magnitude (a.u.)       :     15.93729
Magnitude (Debye)      :     40.50937



--------------------
Rotational spectrum 
--------------------
 
Rotational constants in cm-1:     0.002046     0.001268     0.001045 
Rotational constants in MHz :    61.346830    38.023013    31.320624 

 Dipole components along the rotational axes: 
x,y,z [a.u.] :   -14.921173     1.234808     5.461776 
x,y,z [Debye]:   -37.926608     3.138632    13.882730 

 

Timings for individual modules:

Sum of individual times         ...      862.259 sec (=  14.371 min)
GTO integral calculation        ...       12.916 sec (=   0.215 min)   1.5 %
SCF iterations                  ...      651.922 sec (=  10.865 min)  75.6 %
SCF Gradient evaluation         ...      197.421 sec (=   3.290 min)  22.9 %
                             ****ORCA TERMINATED NORMALLY****
TOTAL RUN TIME: 0 days 0 hours 14 minutes 30 seconds 65 msec
