
                                 *****************
                                 * O   R   C   A *
                                 *****************

                                            #,                                       
                                            ###                                      
                                            ####                                     
                                            #####                                    
                                            ######                                   
                                           ########,                                 
                                     ,,################,,,,,                         
                               ,,#################################,,                 
                          ,,##########################################,,             
                       ,#########################################, ''#####,          
                    ,#############################################,,   '####,        
                  ,##################################################,,,,####,       
                ,###########''''           ''''###############################       
              ,#####''   ,,,,##########,,,,          '''####'''          '####       
            ,##' ,,,,###########################,,,                        '##       
           ' ,,###''''                  '''############,,,                           
         ,,##''                                '''############,,,,        ,,,,,,###''
      ,#''                                            '''#######################'''  
     '                                                          ''''####''''         
             ,#######,   #######,   ,#######,      ##                                
            ,#'     '#,  ##    ##  ,#'     '#,    #''#        ######   ,####,        
            ##       ##  ##   ,#'  ##            #'  '#       #        #'  '#        
            ##       ##  #######   ##           ,######,      #####,   #    #        
            '#,     ,#'  ##    ##  '#,     ,#' ,#      #,         ##   #,  ,#        
             '#######'   ##     ##  '#######'  #'      '#     #####' # '####'        



                  #######################################################
                  #                        -***-                        #
                  #          Department of theory and spectroscopy      #
                  #    Directorship and core code : Frank Neese         #
                  #        Max Planck Institute fuer Kohlenforschung    #
                  #                Kaiser Wilhelm Platz 1               #
                  #                 D-45470 Muelheim/Ruhr               #
                  #                      Germany                        #
                  #                                                     #
                  #                  All rights reserved                #
                  #                        -***-                        #
                  #######################################################


                         Program Version 5.0.3 -  RELEASE  -


 With contributions from (in alphabetic order):
   Daniel Aravena         : Magnetic Suceptibility
   Michael Atanasov       : Ab Initio Ligand Field Theory (pilot matlab implementation)
   Alexander A. Auer      : GIAO ZORA, VPT2 properties, NMR spectrum
   Ute Becker             : Parallelization
   Giovanni Bistoni       : ED, misc. LED, open-shell LED, HFLD
   Martin Brehm           : Molecular dynamics
   Dmytro Bykov           : SCF Hessian
   Vijay G. Chilkuri      : MRCI spin determinant printing, contributions to CSF-ICE
   Dipayan Datta          : RHF DLPNO-CCSD density
   Achintya Kumar Dutta   : EOM-CC, STEOM-CC
   Dmitry Ganyushin       : Spin-Orbit,Spin-Spin,Magnetic field MRCI
   Miquel Garcia          : C-PCM and meta-GGA Hessian, CC/C-PCM, Gaussian charge scheme
   Yang Guo               : DLPNO-NEVPT2, F12-NEVPT2, CIM, IAO-localization
   Andreas Hansen         : Spin unrestricted coupled pair/coupled cluster methods
   Benjamin Helmich-Paris : MC-RPA, TRAH-SCF, COSX integrals
   Lee Huntington         : MR-EOM, pCC
   Robert Izsak           : Overlap fitted RIJCOSX, COSX-SCS-MP3, EOM
   Marcus Kettner         : VPT2
   Christian Kollmar      : KDIIS, OOCD, Brueckner-CCSD(T), CCSD density, CASPT2, CASPT2-K
   Simone Kossmann        : Meta GGA functionals, TD-DFT gradient, OOMP2, MP2 Hessian
   Martin Krupicka        : Initial AUTO-CI
   Lucas Lang             : DCDCAS
   Marvin Lechner         : AUTO-CI (C++ implementation), FIC-MRCC
   Dagmar Lenk            : GEPOL surface, SMD
   Dimitrios Liakos       : Extrapolation schemes; Compound Job, initial MDCI parallelization
   Dimitrios Manganas     : Further ROCIS development; embedding schemes
   Dimitrios Pantazis     : SARC Basis sets
   Anastasios Papadopoulos: AUTO-CI, single reference methods and gradients
   Taras Petrenko         : DFT Hessian,TD-DFT gradient, ASA, ECA, R-Raman, ABS, FL, XAS/XES, NRVS
   Peter Pinski           : DLPNO-MP2, DLPNO-MP2 Gradient
   Christoph Reimann      : Effective Core Potentials
   Marius Retegan         : Local ZFS, SOC
   Christoph Riplinger    : Optimizer, TS searches, QM/MM, DLPNO-CCSD(T), (RO)-DLPNO pert. Triples
   Tobias Risthaus        : Range-separated hybrids, TD-DFT gradient, RPA, STAB
   Michael Roemelt        : Original ROCIS implementation
   Masaaki Saitow         : Open-shell DLPNO-CCSD energy and density
   Barbara Sandhoefer     : DKH picture change effects
   Avijit Sen             : IP-ROCIS
   Kantharuban Sivalingam : CASSCF convergence, NEVPT2, FIC-MRCI
   Bernardo de Souza      : ESD, SOC TD-DFT
   Georgi Stoychev        : AutoAux, RI-MP2 NMR, DLPNO-MP2 response
   Willem Van den Heuvel  : Paramagnetic NMR
   Boris Wezisla          : Elementary symmetry handling
   Frank Wennmohs         : Technical directorship


 We gratefully acknowledge several colleagues who have allowed us to
 interface, adapt or use parts of their codes:
   Stefan Grimme, W. Hujo, H. Kruse, P. Pracht,  : VdW corrections, initial TS optimization,
                  C. Bannwarth, S. Ehlert          DFT functionals, gCP, sTDA/sTD-DF
   Ed Valeev, F. Pavosevic, A. Kumar             : LibInt (2-el integral package), F12 methods
   Garnet Chan, S. Sharma, J. Yang, R. Olivares  : DMRG
   Ulf Ekstrom                                   : XCFun DFT Library
   Mihaly Kallay                                 : mrcc  (arbitrary order and MRCC methods)
   Jiri Pittner, Ondrej Demel                    : Mk-CCSD
   Frank Weinhold                                : gennbo (NPA and NBO analysis)
   Christopher J. Cramer and Donald G. Truhlar   : smd solvation model
   Lars Goerigk                                  : TD-DFT with DH, B97 family of functionals
   V. Asgeirsson, H. Jonsson                     : NEB implementation
   FAccTs GmbH                                   : IRC, NEB, NEB-TS, DLPNO-Multilevel, CI-OPT
                                                   MM, QMMM, 2- and 3-layer-ONIOM, Crystal-QMMM,
                                                   LR-CPCM, SF, NACMEs, symmetry and pop. for TD-DFT,
                                                   nearIR, NL-DFT gradient (VV10), updates on ESD,
                                                   ML-optimized integration grids
   S Lehtola, MJT Oliveira, MAL Marques          : LibXC Library
   Liviu Ungur et al                             : ANISO software


 Your calculation uses the libint2 library for the computation of 2-el integrals
 For citations please refer to: http://libint.valeyev.net

 Your ORCA version has been built with support for libXC version: 5.1.0
 For citations please refer to: https://tddft.org/programs/libxc/

 This ORCA versions uses:
   CBLAS   interface :  Fast vector & matrix operations
   LAPACKE interface :  Fast linear algebra routines
   SCALAPACK package :  Parallel linear algebra routines
   Shared memory     :  Shared parallel matrices
   BLAS/LAPACK       :  OpenBLAS 0.3.15  USE64BITINT DYNAMIC_ARCH NO_AFFINITY SkylakeX SINGLE_THREADED
        Core in use  :  SkylakeX
   Copyright (c) 2011-2014, The OpenBLAS Project


================================================================================

----- Orbital basis set information -----
Your calculation utilizes the basis: def2-SVP
   F. Weigend and R. Ahlrichs, Phys. Chem. Chem. Phys. 7, 3297 (2005).

The basis set includes element-specific modifications.

Your calculation utilizes the basis: aug-cc-pVTZ 
    H, B-Ne : Obtained from the ccRepo (grant-hill.group.shef.ac.uk/ccrepo) Feb. 2017
              R. A. Kendall, T. H. Dunning, Jr., R. J. Harrison, J. Chem. Phys. 96, 6796 (1992)
         He : Obtained from the ccRepo (grant-hill.group.shef.ac.uk/ccrepo) Feb. 2017
              D. E. Woon, T. H. Dunning, Jr., J. Chem. Phys. 100, 2975 (1994)
  Li-Be, Na : Obtained from the ccRepo (grant-hill.group.shef.ac.uk/ccrepo) Feb. 2017
              B. P. Prascher, D. E. Woon, K. A. Peterson, T. H. Dunning, Jr., A. K. Wilson, Theor. Chem. Acc. 128, 69 (2011)
         Mg : Obtained from the Peterson Research Group Website (tyr0.chem.wsu.edu/~kipeters) Feb. 2017
              B. P. Prascher, D. E. Woon, K. A. Peterson, T. H. Dunning, Jr., A. K. Wilson, Theor. Chem. Acc. 128, 69 (2011)
      Al-Ar : Obtained from the ccRepo (grant-hill.group.shef.ac.uk/ccrepo) Feb. 2017
              D. E. Woon, T. H. Dunning, Jr., J. Chem. Phys. 98, 1358 (1993)
      Sc-Zn : Obtained from the ccRepo (grant-hill.group.shef.ac.uk/ccrepo) Feb. 2017
              N. B. Balabanov, K. A. Peterson, J. Chem. Phys. 123, 064107 (2005)
              N. B. Balabanov, K. A. Peterson, J. Chem. Phys. 125, 074110 (2006)
      Ga-Kr : Obtained from the ccRepo (grant-hill.group.shef.ac.uk/ccrepo) Feb. 2017
              A. K. Wilson, D. E. Woon, K. A. Peterson, T. H. Dunning, Jr., J. Chem. Phys. 110, 7667 (1999)
     Ag, Au : Obtained from the Peterson Research Group Website (tyr0.chem.wsu.edu/~kipeters) Feb. 2017
              K. A. Peterson, C. Puzzarini, Theor. Chem. Acc. 114, 283 (2005)

Your calculation utilizes the basis: cc-pVTZ 
       H, B-Ne : Obtained from the ccRepo (grant-hill.group.shef.ac.uk/ccrepo) Feb. 2017
                 T. H. Dunning, Jr., J. Chem. Phys. 90, 1007 (1989)
            He : Obtained from the ccRepo (grant-hill.group.shef.ac.uk/ccrepo) Feb. 2017
                 D. E. Woon, T. H. Dunning, Jr., J. Chem. Phys. 100, 2975 (1994)
  Li-Be, Na-Mg : Obtained from the ccRepo (grant-hill.group.shef.ac.uk/ccrepo) Feb. 2017
                 B. P. Prascher, D. E. Woon, K. A. Peterson, T. H. Dunning, Jr., A. K. Wilson, Theor. Chem. Acc. 128, 69 (2011)
         Al-Ar : Obtained from the ccRepo (grant-hill.group.shef.ac.uk/ccrepo) Feb. 2017
                 D. E. Woon, T. H. Dunning, Jr., J. Chem. Phys. 98, 1358 (1993)
            Ca : Obtained from the Peterson Research Group Website (tyr0.chem.wsu.edu/~kipeters) Feb. 2017
                 J. Koput, K. A. Peterson, J. Phys. Chem. 106, 9595 (2002)
         Sc-Zn : Obtained from the ccRepo (grant-hill.group.shef.ac.uk/ccrepo) Feb. 2017
                 N. B. Balabanov, K. A. Peterson, J. Chem. Phys. 123, 064107 (2005)
                 N. B. Balabanov, K. A. Peterson, J. Chem. Phys. 125, 074110 (2006)
         Ga-Kr : Obtained from the ccRepo (grant-hill.group.shef.ac.uk/ccrepo) Feb. 2017
                 A. K. Wilson, D. E. Woon, K. A. Peterson, T. H. Dunning, Jr., J. Chem. Phys. 110, 7667 (1999)
             Y : Obtained from the ccRepo (grant-hill.group.shef.ac.uk/ccrepo) Feb. 2017
                 K. A. Peterson, D. Figgen, M. Dolg, H. Stoll, J. Chem. Phys. 126, 124101 (2007)
        Ag, Au : Obtained from the Peterson Research Group Website (tyr0.chem.wsu.edu/~kipeters) Feb. 2017
                 K. A. Peterson, C. Puzzarini, Theor. Chem. Acc. 114, 283 (2005)

----- AuxJ basis set information -----
Your calculation utilizes the auxiliary basis: def2/J
   F. Weigend, Phys. Chem. Chem. Phys. 8, 1057 (2006).

================================================================================
                                        WARNINGS
                       Please study these warnings very carefully!
================================================================================

WARNING: The globally-selected AuxJ basis set is optimized for use with ECPs
         Make sure a suitable alternative is explicitly given all heavy elements (Z>36)

INFO   : the flag for use of the SHARK integral package has been found!

================================================================================
                                       INPUT FILE
================================================================================
NAME = final049.orca.inp
|  1> ! NoMOPrint PrintBasis #MINIPRINT SMALLPRINT LARGEPRINT
|  2> ! ALLPOP XYZFILE
|  3> #! BP86 3-21G   TightSCF
|  4> ! ENGRAD
|  5> ! B3LYP NormalPNO PModel #DecontractAux
|  6> #! VerySlowConv 
|  7>  %maxcore 5000
|  8>  %scf  maxiter   500  end 
|  9> 
| 10> %pal
| 11>     nprocs 32
| 12> end
| 13> 
| 14> %basis
| 15>     NewGTO O    # New basis for oxygen
| 16>         "aug-cc-pVTZ"
| 17>     end
| 18>     NewGTO C    # New basis for carbon
| 19>         "aug-cc-pVTZ"
| 20>     end
| 21>     NewGTO H    # New basis for hydrogen
| 22>         "cc-pVTZ"
| 23>     end
| 24> end
| 25> 
| 26> * xyz 0   1
| 27>   C  10.99  8.66  11.31  #1
| 28>   H  10.55  8.43  10.3  #2
| 29>   H  10.33  8.48  12.12  #3
| 30>   C  11.49  10.11  11.23  #4
| 31>   H  11.78  10.44  12.24  #5
| 32>   H  12.36  10.15  10.67  #6
| 33>   C  10.29  11.05  10.78  #7
| 34>   H  9.53  11.01  11.52  #8
| 35>   H  10  10.67  9.8  #9
| 36>   C  10.63  12.55  10.64  #10
| 37>   H  10.33  12.91  9.64  #11
| 38>   H  11.7  12.85  10.78  #12
| 39>   O  9.82  13.35  11.56  #13
| 40>   H  9.9  14.3  11.52  #14
| 41>   O  11.95  7.64  11.46  #15
| 42>   H  12.41  7.71  12.31  #16
| 43>   O  13.31  14.76  10.08  #17
| 44>   H  13.93  15.34  10.41  #18
| 45>   H  12.41  15.16  10.4  #19
| 46>   O  13.13  9.22  13.8  #20
| 47>   H  13.72  9.99  13.53  #21
| 48>   H  12.55  9.67  14.42  #22
| 49>   O  7.75  12.03  13.44  #23
| 50>   H  8.07  11.36  14.04  #24
| 51>   H  8.57  12.2  12.97  #25
| 52>   O  15.1  12.8  10.93  #26
| 53>   H  14.43  13.4  10.62  #27
| 54>   H  15.91  13.31  11.12  #28
| 55>   O  6.53  12.86  10.74  #29
| 56>   H  6.02  12.36  10.13  #30
| 57>   H  7.02  12.28  11.3  #31
| 58>   O  11.02  11.13  14.86  #32
| 59>   H  11.36  11.89  14.39  #33
| 60>   H  11.55  11.15  15.67  #34
| 61>   O  4.92  11.64  8.67  #35
| 62>   H  5.34  11.86  7.84  #36
| 63>   H  4.82  10.66  8.69  #37
| 64>   O  14.98  7.35  14.38  #38
| 65>   H  15.18  6.92  13.57  #39
| 66>   H  14.52  8.19  14.28  #40
| 67>   O  12.49  6.32  15.23  #41
| 68>   H  13.41  6.43  14.85  #42
| 69>   H  11.78  6.55  14.65  #43
| 70>   O  8.24  13.76  16.15  #44
| 71>   H  8.16  13.34  15.27  #45
| 72>   H  7.45  13.33  16.59  #46
| 73>   O  7.64  13.47  8.2  #47
| 74>   H  7.38  13.51  9.15  #48
| 75>   H  7.21  14.38  8  #49
| 76>   O  10.36  5.39  11.12  #50
| 77>   H  10.89  6.19  10.96  #51
| 78>   H  10.85  4.56  10.9  #52
| 79>   O  11.01  10.14  6.49  #53
| 80>   H  11.39  10.11  7.38  #54
| 81>   H  10.15  9.73  6.65  #55
| 82>   O  5.38  15.32  11.18  #56
| 83>   H  5.75  14.45  11.12  #57
| 84>   H  4.65  15.3  10.51  #58
| 85>   O  10.97  15.99  10.86  #59
| 86>   H  10.92  16.75  11.47  #60
| 87>   H  10.46  16.28  10.1  #61
| 88>   O  12.78  10.88  8.42  #62
| 89>   H  12.72  11.74  7.97  #63
| 90>   H  13.56  10.37  8.13  #64
| 91>   O  13.23  11.14  16.7  #65
| 92>   H  13.56  11.71  15.96  #66
| 93>   H  13.57  10.23  16.7  #67
| 94>   O  8.41  9.95  15.28  #68
| 95>   H  8.13  9.71  16.17  #69
| 96>   H  9.32  10.17  15.41  #70
| 97>   O  10.12  6.6  14.03  #71
| 98>   H  10.14  6.11  13.24  #72
| 99>   H  9.25  6.98  14.08  #73
|100>   O  4.63  11.5  13.09  #74
|101>   H  5.05  10.67  12.93  #75
|102>   H  5.32  12.12  12.81  #76
|103>   O  12.9  13.39  7.37  #77
|104>   H  12.47  13.83  6.64  #78
|105>   H  13.08  14.11  7.98  #79
|106>   O  15.45  10.79  13.24  #80
|107>   H  16.17  10.24  13  #81
|108>   H  15.4  11.32  12.43  #82
|109>   O  13.84  7  9.57  #83
|110>   H  13.28  7.47  10.23  #84
|111>   H  13.77  6.01  9.56  #85
|112>   O  12.23  13.66  13.8  #86
|113>   H  11.82  14.34  14.4  #87
|114>   H  11.64  13.66  13.03  #88
|115>   O  17.58  13.79  11.91  #89
|116>   H  17.38  14.02  12.86  #90
|117>   H  18.13  12.99  11.9  #91
|118>   Q  0.6645  5.43$  12.45$  16.82$
|119>   Q  0.6645  5.83$  12.52$  18.32$
|120>   Q  -1.3290  5.88$  12.77$  17.52$
|121>   Q  0.6645  9.99$  10.69$  3.67$
|122>   Q  0.6645  11.05$  10.7$  4.8$
|123>   Q  -1.3290  10.76$  10.8$  3.97$
|124>   Q  0.6645  11.09$  5.96$  6.01$
|125>   Q  0.6645  11.77$  7.27$  5.2$
|126>   Q  -1.3290  11.69$  6.46$  5.53$
|127>   Q  0.6645  8.97$  5.64$  19.87$
|128>   Q  0.6645  8.02$  6.51$  19.1$
|129>   Q  -1.3290  8.75$  6.11$  19.22$
|130>   Q  0.6645  5.05$  19.72$  9.26$
|131>   Q  0.6645  5.34$  18.24$  9.08$
|132>   Q  -1.3290  4.86$  18.95$  9.04$
|133>   Q  0.6645  15.18$  7.8$  3.39$
|134>   Q  0.6645  15.17$  8.63$  2.09$
|135>   Q  -1.3290  14.89$  8.42$  2.86$
|136>   Q  0.6645  9.85$  18.1$  9.43$
|137>   Q  0.6645  9.69$  17.33$  8.19$
|138>   Q  -1.3290  9.58$  17.44$  8.99$
|139>   Q  0.6645  6.6$  4.73$  8.91$
|140>   Q  0.6645  5.11$  4.52$  8.64$
|141>   Q  -1.3290  5.84$  4.95$  8.65$
|142>   Q  0.6645  6.46$  2.87$  14.89$
|143>   Q  0.6645  7.17$  3.15$  13.45$
|144>   Q  -1.3290  6.54$  2.91$  14.02$
|145>   Q  0.6645  5.34$  14.59$  18.39$
|146>   Q  0.6645  4.67$  15.08$  19.69$
|147>   Q  -1.3290  5.17$  15.14$  19$
|148>   Q  0.6645  11.06$  7.19$  1.73$
|149>   Q  0.6645  10.71$  7.13$  0.14$
|150>   Q  -1.3290  10.87$  6.84$  0.94$
|151>   Q  0.6645  17.42$  6.27$  8.58$
|152>   Q  0.6645  17.63$  4.7$  8.6$
|153>   Q  -1.3290  17.86$  5.52$  8.54$
|154>   Q  0.6645  17.04$  9.41$  11.06$
|155>   Q  0.6645  18.02$  8.63$  12.03$
|156>   Q  -1.3290  17.27$  8.98$  11.79$
|157>   Q  0.6645  14.5$  17.7$  4.61$
|158>   Q  0.6645  15.25$  18.15$  5.93$
|159>   Q  -1.3290  14.81$  17.6$  5.38$
|160>   Q  0.6645  16.71$  13.02$  17.17$
|161>   Q  0.6645  18.1$  12.74$  17.58$
|162>   Q  -1.3290  17.32$  12.54$  17.32$
|163>   Q  0.6645  12.71$  8.38$  2.91$
|164>   Q  0.6645  11.36$  9.13$  3.36$
|165>   Q  -1.3290  11.86$  8.47$  3.07$
|166>   Q  0.6645  16.13$  12.33$  2.4$
|167>   Q  0.6645  17.04$  11.59$  3.49$
|168>   Q  -1.3290  16.82$  11.88$  2.69$
|169>   Q  0.6645  13.93$  13.18$  14.42$
|170>   Q  0.6645  15.18$  12.23$  14.35$
|171>   Q  -1.3290  14.59$  12.72$  14.71$
|172>   Q  0.6645  20.09$  8.5$  13.17$
|173>   Q  0.6645  19.7$  7.42$  12.14$
|174>   Q  -1.3290  19.8$  8.22$  12.41$
|175>   Q  0.6645  3.12$  8.53$  8.01$
|176>   Q  0.6645  4.41$  8.5$  8.83$
|177>   Q  -1.3290  3.71$  8.85$  8.49$
|178>   Q  0.6645  17.59$  10.27$  18.01$
|179>   Q  0.6645  18.34$  9.11$  18.6$
|180>   Q  -1.3290  17.72$  9.45$  18.18$
|181>   Q  0.6645  8.25$  12.84$  2.52$
|182>   Q  0.6645  8.23$  11.98$  1.16$
|183>   Q  -1.3290  8.07$  12.67$  1.69$
|184>   Q  0.6645  13.87$  20.49$  14.57$
|185>   Q  0.6645  14.58$  19.75$  15.57$
|186>   Q  -1.3290  14.29$  20.45$  15.23$
|187>   Q  0.6645  7.94$  8.6$  7.88$
|188>   Q  0.6645  8.06$  9.85$  6.99$
|189>   Q  -1.3290  8.24$  9.08$  7.27$
|190>   Q  0.6645  15.19$  14.55$  17.55$
|191>   Q  0.6645  15.4$  15.93$  18.17$
|192>   Q  -1.3290  15.49$  15.36$  17.57$
|193>   Q  0.6645  11.1$  8.28$  19.98$
|194>   Q  0.6645  10.34$  7.04$  19.95$
|195>   Q  -1.3290  10.89$  7.54$  20.27$
|196>   Q  0.6645  6.65$  9.99$  2.77$
|197>   Q  0.6645  5.54$  10.51$  1.8$
|198>   Q  -1.3290  5.93$  10.36$  2.55$
|199>   Q  0.6645  16.22$  13.99$  8.02$
|200>   Q  0.6645  16.38$  14.94$  6.74$
|201>   Q  -1.3290  16.42$  14.72$  7.59$
|202>   Q  0.6645  16.19$  2.01$  18.48$
|203>   Q  0.6645  15.49$  3.14$  19.05$
|204>   Q  -1.3290  15.84$  2.44$  19.08$
|205>   Q  0.6645  18.87$  11.29$  12.99$
|206>   Q  0.6645  19.37$  11.53$  11.51$
|207>   Q  -1.3290  19.34$  11.65$  12.36$
|208>   Q  0.6645  14.38$  1.28$  9.42$
|209>   Q  0.6645  14.62$  0.18$  10.17$
|210>   Q  -1.3290  14.5$  0.95$  10.1$
|211>   Q  0.6645  13.95$  1.86$  6.31$
|212>   Q  0.6645  14.24$  0.8$  5.29$
|213>   Q  -1.3290  13.96$  1.09$  6$
|214>   Q  0.6645  11.94$  18.59$  12.89$
|215>   Q  0.6645  10.66$  17.75$  13.36$
|216>   Q  -1.3290  11.44$  17.86$  13.01$
|217>   Q  0.6645  9.23$  17.83$  6.08$
|218>   Q  0.6645  10.66$  18.4$  6.27$
|219>   Q  -1.3290  10.04$  17.83$  6.29$
|220>   Q  0.6645  9.56$  10.66$  19.38$
|221>   Q  0.6645  9.34$  12.15$  19.33$
|222>   Q  -1.3290  9.12$  11.37$  19.53$
|223>   Q  0.6645  16.91$  2.91$  10.3$
|224>   Q  0.6645  16.95$  2.46$  8.9$
|225>   Q  -1.3290  17.17$  2.96$  9.51$
|226>   Q  0.6645  5.61$  19.56$  15.25$
|227>   Q  0.6645  5.44$  19.47$  13.74$
|228>   Q  -1.3290  5.46$  19.87$  14.49$
|229>   Q  0.6645  19.41$  5.27$  7.49$
|230>   Q  0.6645  20.96$  5.27$  7.67$
|231>   Q  -1.3290  20.21$  5.1$  7.28$
|232>   Q  0.6645  6.78$  11.71$  5.62$
|233>   Q  0.6645  7.67$  12.28$  6.77$
|234>   Q  -1.3290  7.5$  11.81$  6.07$
|235>   Q  0.6645  13.53$  17.97$  10.64$
|236>   Q  0.6645  12.98$  17.67$  9.24$
|237>   Q  -1.3290  13.17$  18.17$  9.92$
|238>   Q  0.6645  2.73$  17.36$  13.1$
|239>   Q  0.6645  2.19$  16$  13.18$
|240>   Q  -1.3290  2.81$  16.56$  13.05$
|241>   Q  0.6645  12.49$  16.67$  16.68$
|242>   Q  0.6645  11.5$  17.28$  17.63$
|243>   Q  -1.3290  12.24$  17.26$  17.21$
|244>   Q  0.6645  6.94$  4.5$  3.44$
|245>   Q  0.6645  8.19$  5.01$  2.64$
|246>   Q  -1.3290  7.4$  4.65$  2.75$
|247>   Q  0.6645  13.38$  8.01$  7.3$
|248>   Q  0.6645  14.81$  8.31$  6.72$
|249>   Q  -1.3290  14.02$  8.52$  7.04$
|250>   Q  0.6645  14.89$  17.33$  15.48$
|251>   Q  0.6645  15.67$  18.14$  16.54$
|252>   Q  -1.3290  15.28$  18.01$  15.81$
|253>   Q  0.6645  8.7$  5.2$  6.5$
|254>   Q  0.6645  9.97$  4.48$  7.06$
|255>   Q  -1.3290  9.52$  5.14$  6.77$
|256>   Q  0.6645  18.22$  6.62$  16.63$
|257>   Q  0.6645  19.65$  6.27$  16.69$
|258>   Q  -1.3290  18.99$  6.58$  16.32$
|259>   Q  0.6645  3.68$  3.87$  10.18$
|260>   Q  0.6645  4.72$  2.84$  9.84$
|261>   Q  -1.3290  4.1$  3.37$  9.66$
|262>   Q  0.6645  14.83$  16.74$  12.66$
|263>   Q  0.6645  15.83$  17.81$  12.1$
|264>   Q  -1.3290  15.28$  17.15$  12.08$
|265>   Q  0.6645  15.96$  6.77$  16.37$
|266>   Q  0.6645  16.81$  7.71$  17.24$
|267>   Q  -1.3290  16.39$  6.98$  17.08$
|268>   Q  0.6645  5.89$  7.88$  14.68$
|269>   Q  0.6645  6.84$  8.99$  14.4$
|270>   Q  -1.3290  6.23$  8.47$  14.21$
|271>   Q  0.6645  9.22$  17.64$  19.16$
|272>   Q  0.6645  9.75$  19.02$  18.86$
|273>   Q  -1.3290  9.83$  18.2$  18.98$
|274>   Q  0.6645  10.34$  16.27$  15.42$
|275>   Q  0.6645  9.68$  14.95$  15.55$
|276>   Q  -1.3290  10.29$  15.45$  15.33$
|277>   Q  0.6645  2.92$  8.35$  17.24$
|278>   Q  0.6645  2.81$  8.65$  15.65$
|279>   Q  -1.3290  3.15$  8.67$  16.46$
|280>   Q  0.6645  12.36$  20.81$  13.06$
|281>   Q  0.6645  13.49$  20.21$  12.16$
|282>   Q  -1.3290  12.92$  20.24$  12.81$
|283>   Q  0.6645  15.56$  19.96$  11.41$
|284>   Q  0.6645  14.46$  19.52$  10.31$
|285>   Q  -1.3290  14.95$  20.07$  10.78$
|286>   Q  0.6645  20.67$  10.42$  9.65$
|287>   Q  0.6645  20.12$  11.71$  8.96$
|288>   Q  -1.3290  20.12$  11.03$  9.5$
|289>   Q  0.6645  7.33$  18.44$  4.45$
|290>   Q  0.6645  6.53$  18.65$  3.14$
|291>   Q  -1.3290  7.2$  18.74$  3.67$
|292>   Q  0.6645  6.85$  22.5$  13.31$
|293>   Q  0.6645  6.69$  21.34$  14.25$
|294>   Q  -1.3290  7.08$  21.8$  13.71$
|295>   Q  0.6645  4.4$  13.16$  2.09$
|296>   Q  0.6645  4.47$  13.13$  3.63$
|297>   Q  -1.3290  4.23$  13.43$  2.87$
|298>   Q  0.6645  3.58$  16.89$  6.71$
|299>   Q  0.6645  4.86$  15.95$  6.63$
|300>   Q  -1.3290  4.05$  16.22$  6.47$
|301>   Q  0.6645  18.96$  18.27$  9.91$
|302>   Q  0.6645  18.08$  16.98$  10.34$
|303>   Q  -1.3290  18.5$  17.78$  10.43$
|304>   Q  0.6645  7.06$  15.94$  6.13$
|305>   Q  0.6645  6.86$  16.71$  7.42$
|306>   Q  -1.3290  6.75$  16.06$  6.86$
|307>   Q  0.6645  18.77$  5.35$  14.66$
|308>   Q  0.6645  19$  4.09$  13.91$
|309>   Q  -1.3290  18.99$  4.94$  13.98$
|310>   Q  0.6645  5.35$  1.71$  11.54$
|311>   Q  0.6645  6.19$  1.02$  10.36$
|312>   Q  -1.3290  5.87$  1.67$  10.83$
|313>   Q  0.6645  11.69$  0.84$  6.18$
|314>   Q  0.6645  10.6$  1.53$  5.19$
|315>   Q  -1.3290  10.95$  1.16$  5.92$
|316>   Q  0.6645  7.87$  10.19$  18.46$
|317>   Q  0.6645  7.33$  8.75$  18.17$
|318>   Q  -1.3290  7.75$  9.48$  18.02$
|319>   Q  0.6645  16.79$  0.47$  8.03$
|320>   Q  0.6645  16.38$  0.89$  6.57$
|321>   Q  -1.3290  16.56$  1.01$  7.41$
|322>   Q  0.6645  15.02$  11.97$  7.81$
|323>   Q  0.6645  16.31$  12.1$  6.95$
|324>   Q  -1.3290  15.87$  12.04$  7.67$
|325>   Q  0.6645  2.02$  13.46$  6.72$
|326>   Q  0.6645  2.41$  14.76$  6.02$
|327>   Q  -1.3290  1.88$  14.23$  6.42$
|328>   Q  0.6645  6.45$  4.22$  5.48$
|329>   Q  0.6645  6.45$  5.39$  6.51$
|330>   Q  -1.3290  6.74$  4.93$  5.83$
|331>   Q  0.6645  19.94$  10.18$  6.26$
|332>   Q  0.6645  19.27$  11.27$  6.89$
|333>   Q  -1.3290  19.36$  10.51$  6.71$
|334>   Q  0.6645  14.75$  7.85$  19.98$
|335>   Q  0.6645  15.59$  8.49$  18.86$
|336>   Q  -1.3290  14.97$  8.45$  19.41$
|337>   Q  0.6645  18.7$  15.25$  16.88$
|338>   Q  0.6645  17.39$  15.86$  16.82$
|339>   Q  -1.3290  18.15$  15.79$  16.54$
|340>   Q  0.6645  2.83$  10.01$  10.49$
|341>   Q  0.6645  2.49$  11.39$  11.18$
|342>   Q  -1.3290  2.31$  10.58$  10.89$
|343>   Q  0.6645  9.26$  14.23$  1.54$
|344>   Q  0.6645  10.74$  13.94$  1.75$
|345>   Q  -1.3290  10.07$  14.44$  1.61$
|346>   Q  0.6645  14.68$  13.65$  4$
|347>   Q  0.6645  13.81$  12.3$  3.9$
|348>   Q  -1.3290  14.14$  13.07$  3.68$
|349>   Q  0.6645  10.11$  0.12$  9.31$
|350>   Q  0.6645  10.31$  0.18$  10.92$
|351>   Q  -1.3290  10.56$  0.17$  10.08$
|352>   Q  0.6645  15.41$  7.28$  8.6$
|353>   Q  0.6645  16.57$  8.32$  8.53$
|354>   Q  -1.3290  16.17$  7.59$  8.32$
|355>   Q  0.6645  8.51$  8.6$  3.24$
|356>   Q  0.6645  8.47$  9.41$  1.79$
|357>   Q  -1.3290  8.5$  9.26$  2.66$
|358>   Q  0.6645  3.09$  11.61$  7.74$
|359>   Q  0.6645  2.54$  10.9$  6.65$
|360>   Q  -1.3290  2.77$  11.57$  7$
|361>   Q  0.6645  15.88$  10.65$  5.12$
|362>   Q  0.6645  17.38$  10.06$  5.42$
|363>   Q  -1.3290  16.77$  10.57$  5.09$
|364>   Q  0.6645  12.61$  19.58$  6.62$
|365>   Q  0.6645  11.88$  20$  5.25$
|366>   Q  -1.3290  11.97$  19.82$  6.1$
|367>   Q  0.6645  17.57$  11.21$  15.39$
|368>   Q  0.6645  19.04$  11.58$  15.19$
|369>   Q  -1.3290  18.35$  11.11$  15.05$
|370>   Q  0.6645  6.41$  17.95$  16.29$
|371>   Q  0.6645  5.34$  18.48$  17.38$
|372>   Q  -1.3290  5.95$  18.53$  16.74$
|373>   Q  0.6645  6.43$  16.87$  14.27$
|374>   Q  0.6645  6.32$  16.08$  15.43$
|375>   Q  -1.3290  6.72$  16.6$  14.97$
|376>   Q  0.6645  11.8$  10.11$  19.34$
|377>   Q  0.6645  11.75$  9.05$  18.28$
|378>   Q  -1.3290  11.44$  9.53$  18.87$
|379>   Q  0.6645  8.91$  21.04$  14.71$
|380>   Q  0.6645  9.02$  21.22$  16.16$
|381>   Q  -1.3290  9.29$  20.92$  15.43$
|382>   Q  0.6645  6.53$  17.87$  12.1$
|383>   Q  0.6645  5.37$  16.89$  12.33$
|384>   Q  -1.3290  5.81$  17.62$  12.45$
|385>   Q  0.6645  10$  21.45$  7.29$
|386>   Q  0.6645  8.62$  21.95$  7.55$
|387>   Q  -1.3290  9.25$  21.44$  7.69$
|388>   Q  0.6645  13.44$  1.39$  13.53$
|389>   Q  0.6645  13.99$  1.35$  12.2$
|390>   Q  -1.3290  14.03$  1.56$  12.99$
|391>   Q  0.6645  21.18$  8.78$  10.76$
|392>   Q  0.6645  22.53$  9.73$  10.56$
|393>   Q  -1.3290  21.89$  9.11$  10.38$
|394>   Q  0.6645  11.24$  3.38$  14.16$
|395>   Q  0.6645  11.49$  3.14$  12.56$
|396>   Q  -1.3290  11.06$  3.17$  13.33$
|397>   Q  0.6645  16.84$  10.88$  9.08$
|398>   Q  0.6645  18.2$  10.25$  9.18$
|399>   Q  -1.3290  17.36$  10.25$  9.21$
|400>   Q  0.6645  13.81$  8.05$  17.97$
|401>   Q  0.6645  12.88$  7.67$  16.67$
|402>   Q  -1.3290  13.28$  8.16$  17.27$
|403>   Q  0.6645  1.5$  11.86$  13.78$
|404>   Q  0.6645  2.53$  11.56$  14.93$
|405>   Q  -1.3290  1.75$  11.66$  14.58$
|406>   Q  0.6645  17.45$  0.44$  16.91$
|407>   Q  0.6645  17.05$  1.83$  16.35$
|408>   Q  -1.3290  17.25$  1.24$  16.93$
|409>   Q  0.6645  4.02$  10.55$  15.97$
|410>   Q  0.6645  4.45$  11.43$  14.81$
|411>   Q  -1.3290  4.21$  11.28$  15.63$
|412>   Q  0.6645  13.4$  4.72$  2.84$
|413>   Q  0.6645  12.78$  5.32$  4.09$
|414>   Q  -1.3290  13.2$  4.73$  3.63$
|415>   Q  0.6645  6.28$  6.99$  8.69$
|416>   Q  0.6645  6.41$  7.97$  9.78$
|417>   Q  -1.3290  6.41$  7.77$  8.99$
|418>   Q  0.6645  3.06$  13.86$  11.56$
|419>   Q  0.6645  2.5$  14.06$  10.13$
|420>   Q  -1.3290  2.53$  13.72$  10.9$
|421>   Q  0.6645  14.19$  2.07$  16.83$
|422>   Q  0.6645  14.24$  0.62$  16.3$
|423>   Q  -1.3290  13.98$  1.28$  16.77$
|424>   Q  0.6645  5.54$  12.18$  20.7$
|425>   Q  0.6645  6.88$  11.7$  20.08$
|426>   Q  -1.3290  6.03$  11.86$  20.11$
|427>   Q  0.6645  16.58$  15.47$  4.38$
|428>   Q  0.6645  15.28$  15.68$  4.99$
|429>   Q  -1.3290  15.85$  15.2$  4.69$
|430>   Q  0.6645  18.3$  17.4$  15.5$
|431>   Q  0.6645  17.16$  18.41$  15.19$
|432>   Q  -1.3290  17.96$  18.1$  15.12$
|433>   Q  0.6645  17.55$  18.9$  11.7$
|434>   Q  0.6645  17.15$  19.82$  12.86$
|435>   Q  -1.3290  17.03$  19.39$  12.16$
|436>   Q  0.6645  14.4$  4.34$  17.3$
|437>   Q  0.6645  13.51$  3.92$  16.13$
|438>   Q  -1.3290  14.2$  3.93$  16.56$
|439>   Q  0.6645  7.66$  20.36$  12.11$
|440>   Q  0.6645  8.7$  19.5$  11.21$
|441>   Q  -1.3290  7.96$  19.85$  11.48$
|442>   Q  0.6645  15.68$  3.01$  15.06$
|443>   Q  0.6645  16.4$  1.83$  14.34$
|444>   Q  -1.3290  16.33$  2.52$  14.82$
|445>   Q  0.6645  12.76$  6.89$  21.06$
|446>   Q  0.6645  13.91$  6.24$  21.84$
|447>   Q  -1.3290  13.58$  6.71$  21.22$
|448>   Q  0.6645  11.64$  15.34$  4.67$
|449>   Q  0.6645  12.81$  14.35$  4.32$
|450>   Q  -1.3290  12.14$  14.68$  4.78$
|451>   Q  0.6645  12.44$  14.74$  20.15$
|452>   Q  0.6645  13.32$  13.93$  19.27$
|453>   Q  -1.3290  12.58$  14.21$  19.53$
|454>   Q  0.6645  15.42$  3.09$  12.24$
|455>   Q  0.6645  16.12$  4.51$  11.77$
|456>   Q  -1.3290  15.8$  3.69$  11.71$
|457>   Q  0.6645  1.73$  9.5$  14.08$
|458>   Q  0.6645  1.07$  8.14$  13.89$
|459>   Q  -1.3290  1.62$  8.68$  14.23$
|460>   Q  0.6645  13.69$  21.41$  7.68$
|461>   Q  0.6645  13.38$  20.41$  8.81$
|462>   Q  -1.3290  13.8$  20.75$  8.16$
|463>   Q  0.6645  9.12$  4.49$  12.01$
|464>   Q  0.6645  7.82$  5.23$  11.98$
|465>   Q  -1.3290  8.32$  4.6$  12.21$
|466>   Q  0.6645  17.75$  14.31$  15.39$
|467>   Q  0.6645  16.27$  13.91$  14.98$
|468>   Q  -1.3290  17.11$  13.97$  14.91$
|469>   Q  0.6645  6.38$  3.1$  17.77$
|470>   Q  0.6645  7.55$  3.63$  16.92$
|471>   Q  -1.3290  6.98$  3.05$  17.16$
|472>   Q  0.6645  8.92$  0.48$  12.98$
|473>   Q  0.6645  10.13$  1.48$  12.94$
|474>   Q  -1.3290  9.68$  0.79$  12.74$
|475>   Q  0.6645  14.95$  4.15$  5.69$
|476>   Q  0.6645  13.54$  4.35$  5.62$
|477>   Q  -1.3290  14.23$  4.14$  6.03$
|478>   Q  0.6645  4.15$  3.15$  6.38$
|479>   Q  0.6645  4.9$  2.43$  5.28$
|480>   Q  -1.3290  4.82$  2.8$  6.05$
|481>   Q  0.6645  16.84$  6.97$  11.81$
|482>   Q  0.6645  17.61$  5.91$  12.72$
|483>   Q  -1.3290  16.98$  6.2$  12.21$
|484>   Q  0.6645  10.38$  20.47$  10.19$
|485>   Q  0.6645  11.32$  19.12$  10.28$
|486>   Q  -1.3290  10.59$  19.62$  10.37$
|487>   Q  0.6645  16.48$  5.56$  4.14$
|488>   Q  0.6645  17$  6.91$  4.63$
|489>   Q  -1.3290  16.58$  6.38$  4.12$
|490>   Q  0.6645  12$  16.36$  7.12$
|491>   Q  0.6645  13.45$  16.93$  6.83$
|492>   Q  -1.3290  12.73$  16.76$  7.32$
|493>   Q  0.6645  13.96$  5.48$  19.92$
|494>   Q  0.6645  13.21$  4.35$  19.16$
|495>   Q  -1.3290  13.85$  4.87$  19.31$
|496>   Q  0.6645  11.99$  2.11$  18.63$
|497>   Q  0.6645  11.21$  3.21$  19.33$
|498>   Q  -1.3290  11.81$  2.92$  18.83$
|499>   Q  0.6645  2.43$  16.01$  9.34$
|500>   Q  0.6645  2.96$  15.23$  8.11$
|501>   Q  -1.3290  2.91$  15.45$  8.93$
|502>   Q  0.6645  12.14$  1.02$  15.42$
|503>   Q  0.6645  11.09$  0.24$  14.65$
|504>   Q  -1.3290  11.85$  0.59$  14.76$
|505>   Q  0.6645  2.89$  5.91$  11.42$
|506>   Q  0.6645  3.72$  5.11$  12.53$
|507>   Q  -1.3290  3.58$  5.5$  11.77$
|508>   Q  0.6645  9.36$  3.3$  3.64$
|509>   Q  0.6645  8.79$  1.91$  3.75$
|510>   Q  -1.3290  9.37$  2.5$  3.86$
|511>   Q  0.6645  10.21$  5.72$  2.45$
|512>   Q  0.6645  9.83$  6.28$  3.74$
|513>   Q  -1.3290  9.9$  5.66$  3.18$
|514>   Q  0.6645  3.36$  19.69$  12.47$
|515>   Q  0.6645  4.24$  19.44$  11.19$
|516>   Q  -1.3290  3.82$  19.91$  11.78$
|517>   Q  0.6645  19$  9.48$  14.95$
|518>   Q  0.6645  19.53$  8.07$  15.41$
|519>   Q  -1.3290  19.66$  8.88$  15.13$
|520>   Q  0.6645  6.98$  15.86$  19$
|521>   Q  0.6645  8.42$  15.32$  19.3$
|522>   Q  -1.3290  7.81$  15.92$  19.26$
|523>   Q  0.6645  19.29$  5.32$  11.64$
|524>   Q  0.6645  19$  5.85$  10.27$
|525>   Q  -1.3290  19.41$  5.83$  10.99$
|526>   Q  0.6645  11.36$  1.96$  10.26$
|527>   Q  0.6645  12.46$  3.17$  10.24$
|528>   Q  -1.3290  11.68$  2.79$  10.38$
|529>   Q  0.6645  12.86$  19.18$  17.41$
|530>   Q  0.6645  13.25$  20.55$  16.78$
|531>   Q  -1.3290  12.95$  20.01$  17.41$
|532>   Q  0.6645  6.47$  15.71$  3.17$
|533>   Q  0.6645  5.09$  16.05$  2.57$
|534>   Q  -1.3290  5.92$  16.04$  2.59$
|535>   Q  0.6645  8.01$  8.13$  5.48$
|536>   Q  0.6645  7.82$  6.73$  4.97$
|537>   Q  -1.3290  7.97$  7.51$  4.89$
|538>   Q  0.6645  8.49$  14.87$  4.66$
|539>   Q  0.6645  8.78$  16.22$  4.06$
|540>   Q  -1.3290  8.33$  15.69$  4.5$
|541>   Q  0.6645  9.14$  18.77$  15.07$
|542>   Q  0.6645  8.49$  17.43$  14.69$
|543>   Q  -1.3290  9.12$  17.97$  14.77$
|544>   Q  0.6645  9.28$  5.4$  15.8$
|545>   Q  0.6645  9.09$  5.68$  17.38$
|546>   Q  -1.3290  8.92$  5.35$  16.58$
|547>   Q  0.6645  4.66$  7.71$  16.11$
|548>   Q  0.6645  4.85$  6.22$  15.68$
|549>   Q  -1.3290  5.11$  6.99$  15.94$
|550>   Q  0.6645  14.5$  3.9$  9.55$
|551>   Q  0.6645  13.57$  4.21$  8.23$
|552>   Q  -1.3290  13.79$  4.09$  9.07$
|553>   Q  0.6645  3.72$  14.88$  15.62$
|554>   Q  0.6645  4.02$  15.66$  14.4$
|555>   Q  -1.3290  4.22$  15.29$  15.15$
|556>   Q  0.6645  17.79$  15.06$  10.64$
|557>   Q  0.6645  17.52$  15.3$  9.19$
|558>   Q  -1.3290  17.93$  15.42$  9.89$
|559>   Q  0.6645  8$  3.67$  10.41$
|560>   Q  0.6645  9.04$  4.01$  9.3$
|561>   Q  -1.3290  8.29$  3.67$  9.6$
|562>   Q  0.6645  9.67$  0.57$  17.91$
|563>   Q  0.6645  8.64$  1.55$  17.31$
|564>   Q  -1.3290  8.95$  0.79$  17.54$
|565>   Q  0.6645  2.67$  19.31$  6.36$
|566>   Q  0.6645  3.65$  19.08$  7.44$
|567>   Q  -1.3290  3.17$  18.83$  6.78$
|568>   Q  0.6645  9.84$  12.74$  4.01$
|569>   Q  0.6645  8.49$  12.55$  4.9$
|570>   Q  -1.3290  9.04$  12.88$  4.29$
|571>   Q  0.6645  6.68$  19.33$  6.92$
|572>   Q  0.6645  8.18$  19.63$  7$
|573>   Q  -1.3290  7.46$  19.25$  6.72$
|574>   Q  0.6645  12.81$  12.91$  2.18$
|575>   Q  0.6645  11.86$  11.7$  2.19$
|576>   Q  -1.3290  12.19$  12.41$  1.88$
|577>   Q  0.6645  13.68$  17.62$  18.81$
|578>   Q  0.6645  15$  18.28$  18.93$
|579>   Q  -1.3290  14.39$  17.8$  19.19$
|580>   Q  0.6645  10.58$  15.93$  2.52$
|581>   Q  0.6645  10.5$  17.45$  2.53$
|582>   Q  -1.3290  10.75$  16.7$  2.84$
|583>   Q  0.6645  5.37$  6.46$  11.41$
|584>   Q  0.6645  6.16$  7.61$  12.09$
|585>   Q  -1.3290  6.04$  6.94$  11.61$
|586>   Q  0.6645  16.71$  19.49$  7.1$
|587>   Q  0.6645  15.28$  20.05$  7.02$
|588>   Q  -1.3290  15.98$  19.69$  6.73$
|589>   Q  0.6645  20.04$  2.65$  11.68$
|590>   Q  0.6645  19.31$  2.94$  10.32$
|591>   Q  -1.3290  19.98$  2.89$  10.85$
|592>   Q  0.6645  2.91$  8.91$  4.47$
|593>   Q  0.6645  2.39$  10.15$  4.28$
|594>   Q  -1.3290  2.55$  9.55$  4.77$
|595>   Q  0.6645  19.33$  14.28$  9.21$
|596>   Q  0.6645  20.66$  14.71$  8.51$
|597>   Q  -1.3290  20.06$  14.17$  8.79$
|598>   Q  0.6645  6.79$  1.98$  7.23$
|599>   Q  0.6645  7.81$  2.07$  8.37$
|600>   Q  -1.3290  7.39$  1.68$  7.72$
|601>   Q  0.6645  7.38$  20.64$  18.17$
|602>   Q  0.6645  7.23$  19.2$  17.86$
|603>   Q  -1.3290  7.56$  19.86$  18.24$
|604>   Q  0.6645  14.08$  12.43$  17.91$
|605>   Q  0.6645  15.11$  12.58$  18.87$
|606>   Q  -1.3290  14.61$  12.88$  18.3$
|607>   Q  0.6645  11.42$  3.75$  16.88$
|608>   Q  0.6645  11.62$  4.81$  15.91$
|609>   Q  -1.3290  11.52$  4.03$  16.11$
|610>   Q  0.6645  20.91$  5.38$  13.83$
|611>   Q  0.6645  22$  5.58$  12.74$
|612>   Q  -1.3290  21.69$  5.48$  13.52$
|613>   Q  0.6645  10.68$  13.87$  18.59$
|614>   Q  0.6645  9.51$  13.78$  17.7$
|615>   Q  -1.3290  9.88$  13.78$  18.43$
|616>   Q  0.6645  13.62$  17.41$  1.93$
|617>   Q  0.6645  12.58$  17$  2.93$
|618>   Q  -1.3290  13.32$  17.26$  2.69$
|619>   Q  0.6645  3.33$  3.81$  14.23$
|620>   Q  0.6645  4.85$  3.83$  13.87$
|621>   Q  -1.3290  4.06$  4.18$  14.04$
|622>   Q  0.6645  6.35$  16.47$  9.98$
|623>   Q  0.6645  7.69$  17.14$  9.65$
|624>   Q  -1.3290  6.85$  16.98$  9.56$
|625>   Q  0.6645  16.76$  5.31$  20.17$
|626>   Q  0.6645  16.95$  5.46$  18.66$
|627>   Q  -1.3290  17.13$  5.18$  19.42$
|628>   Q  0.6645  6.8$  20.76$  9.8$
|629>   Q  0.6645  6.64$  21.87$  8.64$
|630>   Q  -1.3290  6.41$  21.25$  9.18$
|631>   Q  0.6645  12.14$  12.57$  20.2$
|632>   Q  0.6645  12.42$  12.15$  21.59$
|633>   Q  -1.3290  12.41$  12.02$  20.77$
|634>   Q  0.6645  15.26$  10.19$  20.04$
|635>   Q  0.6645  14.32$  11.27$  20.72$
|636>   Q  -1.3290  15.06$  10.96$  20.41$
|637>   Q  0.6645  17.44$  7.31$  6.44$
|638>   Q  0.6645  18.33$  8.44$  6.28$
|639>   Q  -1.3290  17.86$  7.83$  6$
|640>   Q  0.6645  5.64$  7.04$  19.24$
|641>   Q  0.6645  6.23$  6.8$  17.89$
|642>   Q  -1.3290  6.22$  7.11$  18.65$
|643>   Q  0.6645  13.21$  15.41$  13.8$
|644>   Q  0.6645  12.91$  16.86$  14.02$
|645>   Q  -1.3290  13.36$  16.16$  14.1$
|646>   Q  0.6645  4.35$  11.49$  5.42$
|647>   Q  0.6645  5.2$  11.13$  4.22$
|648>   Q  -1.3290  4.96$  11.59$  4.88$
|649>   Q  0.6645  13.33$  10.35$  5.6$
|650>   Q  0.6645  14.14$  9.96$  4.36$
|651>   Q  -1.3290  13.81$  10.49$  4.92$
|652>   Q  0.6645  11.03$  2.53$  7.29$
|653>   Q  0.6645  11.37$  3.18$  8.7$
|654>   Q  -1.3290  11.13$  3.16$  7.86$
|655> *
|656> 
|657>                          ****END OF INPUT****
================================================================================

                     *******************************
                     * Energy+Gradient Calculation *
                     *******************************

---------------------------------
CARTESIAN COORDINATES (ANGSTROEM)
---------------------------------
  C     10.990000    8.660000   11.310000
  H     10.550000    8.430000   10.300000
  H     10.330000    8.480000   12.120000
  C     11.490000   10.110000   11.230000
  H     11.780000   10.440000   12.240000
  H     12.360000   10.150000   10.670000
  C     10.290000   11.050000   10.780000
  H      9.530000   11.010000   11.520000
  H     10.000000   10.670000    9.800000
  C     10.630000   12.550000   10.640000
  H     10.330000   12.910000    9.640000
  H     11.700000   12.850000   10.780000
  O      9.820000   13.350000   11.560000
  H      9.900000   14.300000   11.520000
  O     11.950000    7.640000   11.460000
  H     12.410000    7.710000   12.310000
  O     13.310000   14.760000   10.080000
  H     13.930000   15.340000   10.410000
  H     12.410000   15.160000   10.400000
  O     13.130000    9.220000   13.800000
  H     13.720000    9.990000   13.530000
  H     12.550000    9.670000   14.420000
  O      7.750000   12.030000   13.440000
  H      8.070000   11.360000   14.040000
  H      8.570000   12.200000   12.970000
  O     15.100000   12.800000   10.930000
  H     14.430000   13.400000   10.620000
  H     15.910000   13.310000   11.120000
  O      6.530000   12.860000   10.740000
  H      6.020000   12.360000   10.130000
  H      7.020000   12.280000   11.300000
  O     11.020000   11.130000   14.860000
  H     11.360000   11.890000   14.390000
  H     11.550000   11.150000   15.670000
  O      4.920000   11.640000    8.670000
  H      5.340000   11.860000    7.840000
  H      4.820000   10.660000    8.690000
  O     14.980000    7.350000   14.380000
  H     15.180000    6.920000   13.570000
  H     14.520000    8.190000   14.280000
  O     12.490000    6.320000   15.230000
  H     13.410000    6.430000   14.850000
  H     11.780000    6.550000   14.650000
  O      8.240000   13.760000   16.150000
  H      8.160000   13.340000   15.270000
  H      7.450000   13.330000   16.590000
  O      7.640000   13.470000    8.200000
  H      7.380000   13.510000    9.150000
  H      7.210000   14.380000    8.000000
  O     10.360000    5.390000   11.120000
  H     10.890000    6.190000   10.960000
  H     10.850000    4.560000   10.900000
  O     11.010000   10.140000    6.490000
  H     11.390000   10.110000    7.380000
  H     10.150000    9.730000    6.650000
  O      5.380000   15.320000   11.180000
  H      5.750000   14.450000   11.120000
  H      4.650000   15.300000   10.510000
  O     10.970000   15.990000   10.860000
  H     10.920000   16.750000   11.470000
  H     10.460000   16.280000   10.100000
  O     12.780000   10.880000    8.420000
  H     12.720000   11.740000    7.970000
  H     13.560000   10.370000    8.130000
  O     13.230000   11.140000   16.700000
  H     13.560000   11.710000   15.960000
  H     13.570000   10.230000   16.700000
  O      8.410000    9.950000   15.280000
  H      8.130000    9.710000   16.170000
  H      9.320000   10.170000   15.410000
  O     10.120000    6.600000   14.030000
  H     10.140000    6.110000   13.240000
  H      9.250000    6.980000   14.080000
  O      4.630000   11.500000   13.090000
  H      5.050000   10.670000   12.930000
  H      5.320000   12.120000   12.810000
  O     12.900000   13.390000    7.370000
  H     12.470000   13.830000    6.640000
  H     13.080000   14.110000    7.980000
  O     15.450000   10.790000   13.240000
  H     16.170000   10.240000   13.000000
  H     15.400000   11.320000   12.430000
  O     13.840000    7.000000    9.570000
  H     13.280000    7.470000   10.230000
  H     13.770000    6.010000    9.560000
  O     12.230000   13.660000   13.800000
  H     11.820000   14.340000   14.400000
  H     11.640000   13.660000   13.030000
  O     17.580000   13.790000   11.910000
  H     17.380000   14.020000   12.860000
  H     18.130000   12.990000   11.900000
  Q      5.430000   12.450000   16.820000
  Q      5.830000   12.520000   18.320000
  Q      5.880000   12.770000   17.520000
  Q      9.990000   10.690000    3.670000
  Q     11.050000   10.700000    4.800000
  Q     10.760000   10.800000    3.970000
  Q     11.090000    5.960000    6.010000
  Q     11.770000    7.270000    5.200000
  Q     11.690000    6.460000    5.530000
  Q      8.970000    5.640000   19.870000
  Q      8.020000    6.510000   19.100000
  Q      8.750000    6.110000   19.220000
  Q      5.050000   19.720000    9.260000
  Q      5.340000   18.240000    9.080000
  Q      4.860000   18.950000    9.040000
  Q     15.180000    7.800000    3.390000
  Q     15.170000    8.630000    2.090000
  Q     14.890000    8.420000    2.860000
  Q      9.850000   18.100000    9.430000
  Q      9.690000   17.330000    8.190000
  Q      9.580000   17.440000    8.990000
  Q      6.600000    4.730000    8.910000
  Q      5.110000    4.520000    8.640000
  Q      5.840000    4.950000    8.650000
  Q      6.460000    2.870000   14.890000
  Q      7.170000    3.150000   13.450000
  Q      6.540000    2.910000   14.020000
  Q      5.340000   14.590000   18.390000
  Q      4.670000   15.080000   19.690000
  Q      5.170000   15.140000   19.000000
  Q     11.060000    7.190000    1.730000
  Q     10.710000    7.130000    0.140000
  Q     10.870000    6.840000    0.940000
  Q     17.420000    6.270000    8.580000
  Q     17.630000    4.700000    8.600000
  Q     17.860000    5.520000    8.540000
  Q     17.040000    9.410000   11.060000
  Q     18.020000    8.630000   12.030000
  Q     17.270000    8.980000   11.790000
  Q     14.500000   17.700000    4.610000
  Q     15.250000   18.150000    5.930000
  Q     14.810000   17.600000    5.380000
  Q     16.710000   13.020000   17.170000
  Q     18.100000   12.740000   17.580000
  Q     17.320000   12.540000   17.320000
  Q     12.710000    8.380000    2.910000
  Q     11.360000    9.130000    3.360000
  Q     11.860000    8.470000    3.070000
  Q     16.130000   12.330000    2.400000
  Q     17.040000   11.590000    3.490000
  Q     16.820000   11.880000    2.690000
  Q     13.930000   13.180000   14.420000
  Q     15.180000   12.230000   14.350000
  Q     14.590000   12.720000   14.710000
  Q     20.090000    8.500000   13.170000
  Q     19.700000    7.420000   12.140000
  Q     19.800000    8.220000   12.410000
  Q      3.120000    8.530000    8.010000
  Q      4.410000    8.500000    8.830000
  Q      3.710000    8.850000    8.490000
  Q     17.590000   10.270000   18.010000
  Q     18.340000    9.110000   18.600000
  Q     17.720000    9.450000   18.180000
  Q      8.250000   12.840000    2.520000
  Q      8.230000   11.980000    1.160000
  Q      8.070000   12.670000    1.690000
  Q     13.870000   20.490000   14.570000
  Q     14.580000   19.750000   15.570000
  Q     14.290000   20.450000   15.230000
  Q      7.940000    8.600000    7.880000
  Q      8.060000    9.850000    6.990000
  Q      8.240000    9.080000    7.270000
  Q     15.190000   14.550000   17.550000
  Q     15.400000   15.930000   18.170000
  Q     15.490000   15.360000   17.570000
  Q     11.100000    8.280000   19.980000
  Q     10.340000    7.040000   19.950000
  Q     10.890000    7.540000   20.270000
  Q      6.650000    9.990000    2.770000
  Q      5.540000   10.510000    1.800000
  Q      5.930000   10.360000    2.550000
  Q     16.220000   13.990000    8.020000
  Q     16.380000   14.940000    6.740000
  Q     16.420000   14.720000    7.590000
  Q     16.190000    2.010000   18.480000
  Q     15.490000    3.140000   19.050000
  Q     15.840000    2.440000   19.080000
  Q     18.870000   11.290000   12.990000
  Q     19.370000   11.530000   11.510000
  Q     19.340000   11.650000   12.360000
  Q     14.380000    1.280000    9.420000
  Q     14.620000    0.180000   10.170000
  Q     14.500000    0.950000   10.100000
  Q     13.950000    1.860000    6.310000
  Q     14.240000    0.800000    5.290000
  Q     13.960000    1.090000    6.000000
  Q     11.940000   18.590000   12.890000
  Q     10.660000   17.750000   13.360000
  Q     11.440000   17.860000   13.010000
  Q      9.230000   17.830000    6.080000
  Q     10.660000   18.400000    6.270000
  Q     10.040000   17.830000    6.290000
  Q      9.560000   10.660000   19.380000
  Q      9.340000   12.150000   19.330000
  Q      9.120000   11.370000   19.530000
  Q     16.910000    2.910000   10.300000
  Q     16.950000    2.460000    8.900000
  Q     17.170000    2.960000    9.510000
  Q      5.610000   19.560000   15.250000
  Q      5.440000   19.470000   13.740000
  Q      5.460000   19.870000   14.490000
  Q     19.410000    5.270000    7.490000
  Q     20.960000    5.270000    7.670000
  Q     20.210000    5.100000    7.280000
  Q      6.780000   11.710000    5.620000
  Q      7.670000   12.280000    6.770000
  Q      7.500000   11.810000    6.070000
  Q     13.530000   17.970000   10.640000
  Q     12.980000   17.670000    9.240000
  Q     13.170000   18.170000    9.920000
  Q      2.730000   17.360000   13.100000
  Q      2.190000   16.000000   13.180000
  Q      2.810000   16.560000   13.050000
  Q     12.490000   16.670000   16.680000
  Q     11.500000   17.280000   17.630000
  Q     12.240000   17.260000   17.210000
  Q      6.940000    4.500000    3.440000
  Q      8.190000    5.010000    2.640000
  Q      7.400000    4.650000    2.750000
  Q     13.380000    8.010000    7.300000
  Q     14.810000    8.310000    6.720000
  Q     14.020000    8.520000    7.040000
  Q     14.890000   17.330000   15.480000
  Q     15.670000   18.140000   16.540000
  Q     15.280000   18.010000   15.810000
  Q      8.700000    5.200000    6.500000
  Q      9.970000    4.480000    7.060000
  Q      9.520000    5.140000    6.770000
  Q     18.220000    6.620000   16.630000
  Q     19.650000    6.270000   16.690000
  Q     18.990000    6.580000   16.320000
  Q      3.680000    3.870000   10.180000
  Q      4.720000    2.840000    9.840000
  Q      4.100000    3.370000    9.660000
  Q     14.830000   16.740000   12.660000
  Q     15.830000   17.810000   12.100000
  Q     15.280000   17.150000   12.080000
  Q     15.960000    6.770000   16.370000
  Q     16.810000    7.710000   17.240000
  Q     16.390000    6.980000   17.080000
  Q      5.890000    7.880000   14.680000
  Q      6.840000    8.990000   14.400000
  Q      6.230000    8.470000   14.210000
  Q      9.220000   17.640000   19.160000
  Q      9.750000   19.020000   18.860000
  Q      9.830000   18.200000   18.980000
  Q     10.340000   16.270000   15.420000
  Q      9.680000   14.950000   15.550000
  Q     10.290000   15.450000   15.330000
  Q      2.920000    8.350000   17.240000
  Q      2.810000    8.650000   15.650000
  Q      3.150000    8.670000   16.460000
  Q     12.360000   20.810000   13.060000
  Q     13.490000   20.210000   12.160000
  Q     12.920000   20.240000   12.810000
  Q     15.560000   19.960000   11.410000
  Q     14.460000   19.520000   10.310000
  Q     14.950000   20.070000   10.780000
  Q     20.670000   10.420000    9.650000
  Q     20.120000   11.710000    8.960000
  Q     20.120000   11.030000    9.500000
  Q      7.330000   18.440000    4.450000
  Q      6.530000   18.650000    3.140000
  Q      7.200000   18.740000    3.670000
  Q      6.850000   22.500000   13.310000
  Q      6.690000   21.340000   14.250000
  Q      7.080000   21.800000   13.710000
  Q      4.400000   13.160000    2.090000
  Q      4.470000   13.130000    3.630000
  Q      4.230000   13.430000    2.870000
  Q      3.580000   16.890000    6.710000
  Q      4.860000   15.950000    6.630000
  Q      4.050000   16.220000    6.470000
  Q     18.960000   18.270000    9.910000
  Q     18.080000   16.980000   10.340000
  Q     18.500000   17.780000   10.430000
  Q      7.060000   15.940000    6.130000
  Q      6.860000   16.710000    7.420000
  Q      6.750000   16.060000    6.860000
  Q     18.770000    5.350000   14.660000
  Q     19.000000    4.090000   13.910000
  Q     18.990000    4.940000   13.980000
  Q      5.350000    1.710000   11.540000
  Q      6.190000    1.020000   10.360000
  Q      5.870000    1.670000   10.830000
  Q     11.690000    0.840000    6.180000
  Q     10.600000    1.530000    5.190000
  Q     10.950000    1.160000    5.920000
  Q      7.870000   10.190000   18.460000
  Q      7.330000    8.750000   18.170000
  Q      7.750000    9.480000   18.020000
  Q     16.790000    0.470000    8.030000
  Q     16.380000    0.890000    6.570000
  Q     16.560000    1.010000    7.410000
  Q     15.020000   11.970000    7.810000
  Q     16.310000   12.100000    6.950000
  Q     15.870000   12.040000    7.670000
  Q      2.020000   13.460000    6.720000
  Q      2.410000   14.760000    6.020000
  Q      1.880000   14.230000    6.420000
  Q      6.450000    4.220000    5.480000
  Q      6.450000    5.390000    6.510000
  Q      6.740000    4.930000    5.830000
  Q     19.940000   10.180000    6.260000
  Q     19.270000   11.270000    6.890000
  Q     19.360000   10.510000    6.710000
  Q     14.750000    7.850000   19.980000
  Q     15.590000    8.490000   18.860000
  Q     14.970000    8.450000   19.410000
  Q     18.700000   15.250000   16.880000
  Q     17.390000   15.860000   16.820000
  Q     18.150000   15.790000   16.540000
  Q      2.830000   10.010000   10.490000
  Q      2.490000   11.390000   11.180000
  Q      2.310000   10.580000   10.890000
  Q      9.260000   14.230000    1.540000
  Q     10.740000   13.940000    1.750000
  Q     10.070000   14.440000    1.610000
  Q     14.680000   13.650000    4.000000
  Q     13.810000   12.300000    3.900000
  Q     14.140000   13.070000    3.680000
  Q     10.110000    0.120000    9.310000
  Q     10.310000    0.180000   10.920000
  Q     10.560000    0.170000   10.080000
  Q     15.410000    7.280000    8.600000
  Q     16.570000    8.320000    8.530000
  Q     16.170000    7.590000    8.320000
  Q      8.510000    8.600000    3.240000
  Q      8.470000    9.410000    1.790000
  Q      8.500000    9.260000    2.660000
  Q      3.090000   11.610000    7.740000
  Q      2.540000   10.900000    6.650000
  Q      2.770000   11.570000    7.000000
  Q     15.880000   10.650000    5.120000
  Q     17.380000   10.060000    5.420000
  Q     16.770000   10.570000    5.090000
  Q     12.610000   19.580000    6.620000
  Q     11.880000   20.000000    5.250000
  Q     11.970000   19.820000    6.100000
  Q     17.570000   11.210000   15.390000
  Q     19.040000   11.580000   15.190000
  Q     18.350000   11.110000   15.050000
  Q      6.410000   17.950000   16.290000
  Q      5.340000   18.480000   17.380000
  Q      5.950000   18.530000   16.740000
  Q      6.430000   16.870000   14.270000
  Q      6.320000   16.080000   15.430000
  Q      6.720000   16.600000   14.970000
  Q     11.800000   10.110000   19.340000
  Q     11.750000    9.050000   18.280000
  Q     11.440000    9.530000   18.870000
  Q      8.910000   21.040000   14.710000
  Q      9.020000   21.220000   16.160000
  Q      9.290000   20.920000   15.430000
  Q      6.530000   17.870000   12.100000
  Q      5.370000   16.890000   12.330000
  Q      5.810000   17.620000   12.450000
  Q     10.000000   21.450000    7.290000
  Q      8.620000   21.950000    7.550000
  Q      9.250000   21.440000    7.690000
  Q     13.440000    1.390000   13.530000
  Q     13.990000    1.350000   12.200000
  Q     14.030000    1.560000   12.990000
  Q     21.180000    8.780000   10.760000
  Q     22.530000    9.730000   10.560000
  Q     21.890000    9.110000   10.380000
  Q     11.240000    3.380000   14.160000
  Q     11.490000    3.140000   12.560000
  Q     11.060000    3.170000   13.330000
  Q     16.840000   10.880000    9.080000
  Q     18.200000   10.250000    9.180000
  Q     17.360000   10.250000    9.210000
  Q     13.810000    8.050000   17.970000
  Q     12.880000    7.670000   16.670000
  Q     13.280000    8.160000   17.270000
  Q      1.500000   11.860000   13.780000
  Q      2.530000   11.560000   14.930000
  Q      1.750000   11.660000   14.580000
  Q     17.450000    0.440000   16.910000
  Q     17.050000    1.830000   16.350000
  Q     17.250000    1.240000   16.930000
  Q      4.020000   10.550000   15.970000
  Q      4.450000   11.430000   14.810000
  Q      4.210000   11.280000   15.630000
  Q     13.400000    4.720000    2.840000
  Q     12.780000    5.320000    4.090000
  Q     13.200000    4.730000    3.630000
  Q      6.280000    6.990000    8.690000
  Q      6.410000    7.970000    9.780000
  Q      6.410000    7.770000    8.990000
  Q      3.060000   13.860000   11.560000
  Q      2.500000   14.060000   10.130000
  Q      2.530000   13.720000   10.900000
  Q     14.190000    2.070000   16.830000
  Q     14.240000    0.620000   16.300000
  Q     13.980000    1.280000   16.770000
  Q      5.540000   12.180000   20.700000
  Q      6.880000   11.700000   20.080000
  Q      6.030000   11.860000   20.110000
  Q     16.580000   15.470000    4.380000
  Q     15.280000   15.680000    4.990000
  Q     15.850000   15.200000    4.690000
  Q     18.300000   17.400000   15.500000
  Q     17.160000   18.410000   15.190000
  Q     17.960000   18.100000   15.120000
  Q     17.550000   18.900000   11.700000
  Q     17.150000   19.820000   12.860000
  Q     17.030000   19.390000   12.160000
  Q     14.400000    4.340000   17.300000
  Q     13.510000    3.920000   16.130000
  Q     14.200000    3.930000   16.560000
  Q      7.660000   20.360000   12.110000
  Q      8.700000   19.500000   11.210000
  Q      7.960000   19.850000   11.480000
  Q     15.680000    3.010000   15.060000
  Q     16.400000    1.830000   14.340000
  Q     16.330000    2.520000   14.820000
  Q     12.760000    6.890000   21.060000
  Q     13.910000    6.240000   21.840000
  Q     13.580000    6.710000   21.220000
  Q     11.640000   15.340000    4.670000
  Q     12.810000   14.350000    4.320000
  Q     12.140000   14.680000    4.780000
  Q     12.440000   14.740000   20.150000
  Q     13.320000   13.930000   19.270000
  Q     12.580000   14.210000   19.530000
  Q     15.420000    3.090000   12.240000
  Q     16.120000    4.510000   11.770000
  Q     15.800000    3.690000   11.710000
  Q      1.730000    9.500000   14.080000
  Q      1.070000    8.140000   13.890000
  Q      1.620000    8.680000   14.230000
  Q     13.690000   21.410000    7.680000
  Q     13.380000   20.410000    8.810000
  Q     13.800000   20.750000    8.160000
  Q      9.120000    4.490000   12.010000
  Q      7.820000    5.230000   11.980000
  Q      8.320000    4.600000   12.210000
  Q     17.750000   14.310000   15.390000
  Q     16.270000   13.910000   14.980000
  Q     17.110000   13.970000   14.910000
  Q      6.380000    3.100000   17.770000
  Q      7.550000    3.630000   16.920000
  Q      6.980000    3.050000   17.160000
  Q      8.920000    0.480000   12.980000
  Q     10.130000    1.480000   12.940000
  Q      9.680000    0.790000   12.740000
  Q     14.950000    4.150000    5.690000
  Q     13.540000    4.350000    5.620000
  Q     14.230000    4.140000    6.030000
  Q      4.150000    3.150000    6.380000
  Q      4.900000    2.430000    5.280000
  Q      4.820000    2.800000    6.050000
  Q     16.840000    6.970000   11.810000
  Q     17.610000    5.910000   12.720000
  Q     16.980000    6.200000   12.210000
  Q     10.380000   20.470000   10.190000
  Q     11.320000   19.120000   10.280000
  Q     10.590000   19.620000   10.370000
  Q     16.480000    5.560000    4.140000
  Q     17.000000    6.910000    4.630000
  Q     16.580000    6.380000    4.120000
  Q     12.000000   16.360000    7.120000
  Q     13.450000   16.930000    6.830000
  Q     12.730000   16.760000    7.320000
  Q     13.960000    5.480000   19.920000
  Q     13.210000    4.350000   19.160000
  Q     13.850000    4.870000   19.310000
  Q     11.990000    2.110000   18.630000
  Q     11.210000    3.210000   19.330000
  Q     11.810000    2.920000   18.830000
  Q      2.430000   16.010000    9.340000
  Q      2.960000   15.230000    8.110000
  Q      2.910000   15.450000    8.930000
  Q     12.140000    1.020000   15.420000
  Q     11.090000    0.240000   14.650000
  Q     11.850000    0.590000   14.760000
  Q      2.890000    5.910000   11.420000
  Q      3.720000    5.110000   12.530000
  Q      3.580000    5.500000   11.770000
  Q      9.360000    3.300000    3.640000
  Q      8.790000    1.910000    3.750000
  Q      9.370000    2.500000    3.860000
  Q     10.210000    5.720000    2.450000
  Q      9.830000    6.280000    3.740000
  Q      9.900000    5.660000    3.180000
  Q      3.360000   19.690000   12.470000
  Q      4.240000   19.440000   11.190000
  Q      3.820000   19.910000   11.780000
  Q     19.000000    9.480000   14.950000
  Q     19.530000    8.070000   15.410000
  Q     19.660000    8.880000   15.130000
  Q      6.980000   15.860000   19.000000
  Q      8.420000   15.320000   19.300000
  Q      7.810000   15.920000   19.260000
  Q     19.290000    5.320000   11.640000
  Q     19.000000    5.850000   10.270000
  Q     19.410000    5.830000   10.990000
  Q     11.360000    1.960000   10.260000
  Q     12.460000    3.170000   10.240000
  Q     11.680000    2.790000   10.380000
  Q     12.860000   19.180000   17.410000
  Q     13.250000   20.550000   16.780000
  Q     12.950000   20.010000   17.410000
  Q      6.470000   15.710000    3.170000
  Q      5.090000   16.050000    2.570000
  Q      5.920000   16.040000    2.590000
  Q      8.010000    8.130000    5.480000
  Q      7.820000    6.730000    4.970000
  Q      7.970000    7.510000    4.890000
  Q      8.490000   14.870000    4.660000
  Q      8.780000   16.220000    4.060000
  Q      8.330000   15.690000    4.500000
  Q      9.140000   18.770000   15.070000
  Q      8.490000   17.430000   14.690000
  Q      9.120000   17.970000   14.770000
  Q      9.280000    5.400000   15.800000
  Q      9.090000    5.680000   17.380000
  Q      8.920000    5.350000   16.580000
  Q      4.660000    7.710000   16.110000
  Q      4.850000    6.220000   15.680000
  Q      5.110000    6.990000   15.940000
  Q     14.500000    3.900000    9.550000
  Q     13.570000    4.210000    8.230000
  Q     13.790000    4.090000    9.070000
  Q      3.720000   14.880000   15.620000
  Q      4.020000   15.660000   14.400000
  Q      4.220000   15.290000   15.150000
  Q     17.790000   15.060000   10.640000
  Q     17.520000   15.300000    9.190000
  Q     17.930000   15.420000    9.890000
  Q      8.000000    3.670000   10.410000
  Q      9.040000    4.010000    9.300000
  Q      8.290000    3.670000    9.600000
  Q      9.670000    0.570000   17.910000
  Q      8.640000    1.550000   17.310000
  Q      8.950000    0.790000   17.540000
  Q      2.670000   19.310000    6.360000
  Q      3.650000   19.080000    7.440000
  Q      3.170000   18.830000    6.780000
  Q      9.840000   12.740000    4.010000
  Q      8.490000   12.550000    4.900000
  Q      9.040000   12.880000    4.290000
  Q      6.680000   19.330000    6.920000
  Q      8.180000   19.630000    7.000000
  Q      7.460000   19.250000    6.720000
  Q     12.810000   12.910000    2.180000
  Q     11.860000   11.700000    2.190000
  Q     12.190000   12.410000    1.880000
  Q     13.680000   17.620000   18.810000
  Q     15.000000   18.280000   18.930000
  Q     14.390000   17.800000   19.190000
  Q     10.580000   15.930000    2.520000
  Q     10.500000   17.450000    2.530000
  Q     10.750000   16.700000    2.840000
  Q      5.370000    6.460000   11.410000
  Q      6.160000    7.610000   12.090000
  Q      6.040000    6.940000   11.610000
  Q     16.710000   19.490000    7.100000
  Q     15.280000   20.050000    7.020000
  Q     15.980000   19.690000    6.730000
  Q     20.040000    2.650000   11.680000
  Q     19.310000    2.940000   10.320000
  Q     19.980000    2.890000   10.850000
  Q      2.910000    8.910000    4.470000
  Q      2.390000   10.150000    4.280000
  Q      2.550000    9.550000    4.770000
  Q     19.330000   14.280000    9.210000
  Q     20.660000   14.710000    8.510000
  Q     20.060000   14.170000    8.790000
  Q      6.790000    1.980000    7.230000
  Q      7.810000    2.070000    8.370000
  Q      7.390000    1.680000    7.720000
  Q      7.380000   20.640000   18.170000
  Q      7.230000   19.200000   17.860000
  Q      7.560000   19.860000   18.240000
  Q     14.080000   12.430000   17.910000
  Q     15.110000   12.580000   18.870000
  Q     14.610000   12.880000   18.300000
  Q     11.420000    3.750000   16.880000
  Q     11.620000    4.810000   15.910000
  Q     11.520000    4.030000   16.110000
  Q     20.910000    5.380000   13.830000
  Q     22.000000    5.580000   12.740000
  Q     21.690000    5.480000   13.520000
  Q     10.680000   13.870000   18.590000
  Q      9.510000   13.780000   17.700000
  Q      9.880000   13.780000   18.430000
  Q     13.620000   17.410000    1.930000
  Q     12.580000   17.000000    2.930000
  Q     13.320000   17.260000    2.690000
  Q      3.330000    3.810000   14.230000
  Q      4.850000    3.830000   13.870000
  Q      4.060000    4.180000   14.040000
  Q      6.350000   16.470000    9.980000
  Q      7.690000   17.140000    9.650000
  Q      6.850000   16.980000    9.560000
  Q     16.760000    5.310000   20.170000
  Q     16.950000    5.460000   18.660000
  Q     17.130000    5.180000   19.420000
  Q      6.800000   20.760000    9.800000
  Q      6.640000   21.870000    8.640000
  Q      6.410000   21.250000    9.180000
  Q     12.140000   12.570000   20.200000
  Q     12.420000   12.150000   21.590000
  Q     12.410000   12.020000   20.770000
  Q     15.260000   10.190000   20.040000
  Q     14.320000   11.270000   20.720000
  Q     15.060000   10.960000   20.410000
  Q     17.440000    7.310000    6.440000
  Q     18.330000    8.440000    6.280000
  Q     17.860000    7.830000    6.000000
  Q      5.640000    7.040000   19.240000
  Q      6.230000    6.800000   17.890000
  Q      6.220000    7.110000   18.650000
  Q     13.210000   15.410000   13.800000
  Q     12.910000   16.860000   14.020000
  Q     13.360000   16.160000   14.100000
  Q      4.350000   11.490000    5.420000
  Q      5.200000   11.130000    4.220000
  Q      4.960000   11.590000    4.880000
  Q     13.330000   10.350000    5.600000
  Q     14.140000    9.960000    4.360000
  Q     13.810000   10.490000    4.920000
  Q     11.030000    2.530000    7.290000
  Q     11.370000    3.180000    8.700000
  Q     11.130000    3.160000    7.860000

----------------------------
CARTESIAN COORDINATES (A.U.)
----------------------------
  NO LB      ZA    FRAG     MASS         X           Y           Z
   0 C     6.0000    0    12.011   20.768090   16.365028   21.372803
   1 H     1.0000    0     1.008   19.936611   15.930391   19.464179
   2 H     1.0000    0     1.008   19.520871   16.024878   22.903481
   3 C     6.0000    0    12.011   21.712953   19.105131   21.221624
   4 H     1.0000    0     1.008   22.260974   19.728741   23.130248
   5 H     1.0000    0     1.008   23.357015   19.180720   20.163378
   6 C     6.0000    0    12.011   19.445282   20.881474   20.371248
   7 H     1.0000    0     1.008   18.009090   20.805885   21.769645
   8 H     1.0000    0     1.008   18.897261   20.163378   18.519316
   9 C     6.0000    0    12.011   20.087789   23.716063   20.106686
  10 H     1.0000    0     1.008   19.520871   24.396364   18.216960
  11 H     1.0000    0     1.008   22.109796   24.282981   20.371248
  12 O     8.0000    0    15.999   18.557111   25.227844   21.845234
  13 H     1.0000    0     1.008   18.708289   27.023084   21.769645
  14 O     8.0000    0    15.999   22.582227   14.437508   21.656261
  15 H     1.0000    0     1.008   23.451501   14.569788   23.262529
  16 O     8.0000    0    15.999   25.152255   27.892358   19.048439
  17 H     1.0000    0     1.008   26.323885   28.988399   19.672049
  18 H     1.0000    0     1.008   23.451501   28.648248   19.653152
  19 O     8.0000    0    15.999   24.812104   17.423275   26.078221
  20 H     1.0000    0     1.008   25.927043   18.878364   25.567995
  21 H     1.0000    0     1.008   23.716063   18.273652   27.249851
  22 O     8.0000    0    15.999   14.645378   22.733405   25.397919
  23 H     1.0000    0     1.008   15.250090   21.467289   26.531755
  24 H     1.0000    0     1.008   16.194953   23.054659   24.509748
  25 O     8.0000    0    15.999   28.534865   24.188495   20.654707
  26 H     1.0000    0     1.008   27.268748   25.322330   20.068892
  27 H     1.0000    0     1.008   30.065543   25.152255   21.013755
  28 O     8.0000    0    15.999   12.339912   24.301878   20.295659
  29 H     1.0000    0     1.008   11.376151   23.357015   19.142926
  30 H     1.0000    0     1.008   13.265877   23.205837   21.353905
  31 O     8.0000    0    15.999   20.824782   21.032652   28.081330
  32 H     1.0000    0     1.008   21.467289   22.468844   27.193159
  33 H     1.0000    0     1.008   21.826337   21.070446   29.612009
  34 O     8.0000    0    15.999    9.297453   21.996412   16.383926
  35 H     1.0000    0     1.008   10.091138   22.412152   14.815453
  36 H     1.0000    0     1.008    9.108480   20.144481   16.421720
  37 O     8.0000    0    15.999   28.308097   13.889487   27.174262
  38 H     1.0000    0     1.008   28.686043   13.076905   25.643584
  39 H     1.0000    0     1.008   27.438823   15.476857   26.985289
  40 O     8.0000    0    15.999   23.602679   11.943069   28.780529
  41 H     1.0000    0     1.008   25.341227   12.150939   28.062433
  42 H     1.0000    0     1.008   22.260974   12.377706   27.684488
  43 O     8.0000    0    15.999   15.571343   26.002632   30.519077
  44 H     1.0000    0     1.008   15.420165   25.208947   28.856118
  45 H     1.0000    0     1.008   14.078460   25.190049   31.350557
  46 O     8.0000    0    15.999   14.437508   25.454611   15.495754
  47 H     1.0000    0     1.008   13.946179   25.530200   17.290994
  48 H     1.0000    0     1.008   13.624925   27.174262   15.117809
  49 O     8.0000    0    15.999   19.577563   10.185624   21.013755
  50 H     1.0000    0     1.008   20.579118   11.697405   20.711398
  51 H     1.0000    0     1.008   20.503529    8.617151   20.598015
  52 O     8.0000    0    15.999   20.805885   19.161823   12.264323
  53 H     1.0000    0     1.008   21.523981   19.105131   13.946179
  54 H     1.0000    0     1.008   19.180720   18.387035   12.566679
  55 O     8.0000    0    15.999   10.166727   28.950604   21.127138
  56 H     1.0000    0     1.008   10.865925   27.306543   21.013755
  57 H     1.0000    0     1.008    8.787227   28.912810   19.861022
  58 O     8.0000    0    15.999   20.730296   30.216721   20.522426
  59 H     1.0000    0     1.008   20.635809   31.652913   21.675159
  60 H     1.0000    0     1.008   19.766535   30.764741   19.086234
  61 O     8.0000    0    15.999   24.150700   20.560220   15.911494
  62 H     1.0000    0     1.008   24.037316   22.185385   15.061117
  63 H     1.0000    0     1.008   25.624686   19.596460   15.363473
  64 O     8.0000    0    15.999   25.001077   21.051549   31.558426
  65 H     1.0000    0     1.008   25.624686   22.128693   30.160029
  66 H     1.0000    0     1.008   25.643584   19.331898   31.558426
  67 O     8.0000    0    15.999   15.892597   18.802775   28.875015
  68 H     1.0000    0     1.008   15.363473   18.349241   30.556872
  69 H     1.0000    0     1.008   17.612248   19.218515   29.120680
  70 O     8.0000    0    15.999   19.124028   12.472192   26.512858
  71 H     1.0000    0     1.008   19.161823   11.546227   25.019974
  72 H     1.0000    0     1.008   17.479967   13.190288   26.607344
  73 O     8.0000    0    15.999    8.749432   21.731851   24.736515
  74 H     1.0000    0     1.008    9.543117   20.163378   24.434159
  75 H     1.0000    0     1.008   10.053343   22.903481   24.207392
  76 O     8.0000    0    15.999   24.377467   25.303433   13.927282
  77 H     1.0000    0     1.008   23.564885   26.134912   12.547782
  78 H     1.0000    0     1.008   24.717618   26.664036   15.080015
  79 O     8.0000    0    15.999   29.196269   20.390145   25.019974
  80 H     1.0000    0     1.008   30.556872   19.350796   24.566440
  81 H     1.0000    0     1.008   29.101782   21.391700   23.489296
  82 O     8.0000    0    15.999   26.153810   13.228083   18.084679
  83 H     1.0000    0     1.008   25.095563   14.116254   19.331898
  84 H     1.0000    0     1.008   26.021529   11.357254   18.065782
  85 O     8.0000    0    15.999   23.111351   25.813659   26.078221
  86 H     1.0000    0     1.008   22.336563   27.098673   27.212056
  87 H     1.0000    0     1.008   21.996412   25.813659   24.623132
  88 O     8.0000    0    15.999   33.221385   26.059323   22.506638
  89 H     1.0000    0     1.008   32.843440   26.493960   24.301878
  90 H     1.0000    0     1.008   34.260735   24.547542   22.487741
  91 Q     0.6645    0     0.000   10.261213   23.527090   31.785194
  92 Q     0.6645    0     0.000   11.017103   23.659371   34.619783
  93 Q    -1.3290    0     0.000   11.111590   24.131803   33.108002
  94 Q     0.6645    0     0.000   18.878364   20.201172    6.935295
  95 Q     0.6645    0     0.000   20.881474   20.220070    9.070685
  96 Q    -1.3290    0     0.000   20.333453   20.409042    7.502213
  97 Q     0.6645    0     0.000   20.957063   11.262768   11.357254
  98 Q     0.6645    0     0.000   22.242077   13.738309    9.826576
  99 Q    -1.3290    0     0.000   22.090899   12.207631   10.450186
 100 Q     0.6645    0     0.000   16.950843   10.658055   37.548858
 101 Q     0.6645    0     0.000   15.155604   12.302117   36.093769
 102 Q    -1.3290    0     0.000   16.535104   11.546227   36.320536
 103 Q     0.6645    0     0.000    9.543117   37.265399   17.498864
 104 Q     0.6645    0     0.000   10.091138   34.468605   17.158713
 105 Q    -1.3290    0     0.000    9.184069   35.810310   17.083124
 106 Q     0.6645    0     0.000   28.686043   14.739864    6.406172
 107 Q     0.6645    0     0.000   28.667145   16.308337    3.949528
 108 Q    -1.3290    0     0.000   28.138022   15.911494    5.404617
 109 Q     0.6645    0     0.000   18.613802   34.204043   17.820117
 110 Q     0.6645    0     0.000   18.311446   32.748954   15.476857
 111 Q    -1.3290    0     0.000   18.103576   32.956824   16.988638
 112 Q     0.6645    0     0.000   12.472192    8.938405   16.837460
 113 Q     0.6645    0     0.000    9.656501    8.541562   16.327234
 114 Q    -1.3290    0     0.000   11.036001    9.354144   16.346131
 115 Q     0.6645    0     0.000   12.207631    5.423514   28.138022
 116 Q     0.6645    0     0.000   13.549336    5.952637   25.416817
 117 Q    -1.3290    0     0.000   12.358809    5.499103   26.493960
 118 Q     0.6645    0     0.000   10.091138   27.571104   34.752064
 119 Q     0.6645    0     0.000    8.825021   28.497070   37.208708
 120 Q    -1.3290    0     0.000    9.769884   28.610454   35.904797
 121 Q     0.6645    0     0.000   20.900371   13.587131    3.269226
 122 Q     0.6645    0     0.000   20.238967   13.473747    0.264562
 123 Q    -1.3290    0     0.000   20.541323   12.925727    1.776343
 124 Q     0.6645    0     0.000   32.919029   11.848583   16.213850
 125 Q     0.6645    0     0.000   33.315872    8.881713   16.251645
 126 Q    -1.3290    0     0.000   33.750509   10.431288   16.138261
 127 Q     0.6645    0     0.000   32.200933   17.782323   20.900371
 128 Q     0.6645    0     0.000   34.052865   16.308337   22.733405
 129 Q    -1.3290    0     0.000   32.635570   16.969741   22.279871
 130 Q     0.6645    0     0.000   27.401029   33.448153    8.711637
 131 Q     0.6645    0     0.000   28.818324   34.298529   11.206076
 132 Q    -1.3290    0     0.000   27.986844   33.259180   10.166727
 133 Q     0.6645    0     0.000   31.577324   24.604234   32.446598
 134 Q     0.6645    0     0.000   34.204043   24.075111   33.221385
 135 Q    -1.3290    0     0.000   32.730057   23.697166   32.730057
 136 Q     0.6645    0     0.000   24.018419   15.835905    5.499103
 137 Q     0.6645    0     0.000   21.467289   17.253200    6.349480
 138 Q    -1.3290    0     0.000   22.412152   16.005980    5.801459
 139 Q     0.6645    0     0.000   30.481283   23.300323    4.535343
 140 Q     0.6645    0     0.000   32.200933   21.901926    6.595144
 141 Q    -1.3290    0     0.000   31.785194   22.449946    5.083363
 142 Q     0.6645    0     0.000   26.323885   24.906590   27.249851
 143 Q     0.6645    0     0.000   28.686043   23.111351   27.117570
 144 Q    -1.3290    0     0.000   27.571104   24.037316   27.797871
 145 Q     0.6645    0     0.000   37.964598   16.062672   24.887693
 146 Q     0.6645    0     0.000   37.227605   14.021768   22.941275
 147 Q    -1.3290    0     0.000   37.416577   15.533549   23.451501
 148 Q     0.6645    0     0.000    5.895946   16.119364   15.136706
 149 Q     0.6645    0     0.000    8.333692   16.062672   16.686282
 150 Q    -1.3290    0     0.000    7.010884   16.724076   16.043775
 151 Q     0.6645    0     0.000   33.240283   19.407487   34.033968
 152 Q     0.6645    0     0.000   34.657577   17.215405   35.148906
 153 Q    -1.3290    0     0.000   33.485947   17.857912   34.355221
 154 Q     0.6645    0     0.000   15.590241   24.264084    4.762110
 155 Q     0.6645    0     0.000   15.552446   22.638919    2.192082
 156 Q    -1.3290    0     0.000   15.250090   23.942830    3.193637
 157 Q     0.6645    0     0.000   26.210501   38.720488   27.533310
 158 Q     0.6645    0     0.000   27.552207   37.322091   29.423036
 159 Q    -1.3290    0     0.000   27.004186   38.644899   28.780529
 160 Q     0.6645    0     0.000   15.004426   16.251645   14.891042
 161 Q     0.6645    0     0.000   15.231193   18.613802   13.209186
 162 Q    -1.3290    0     0.000   15.571343   17.158713   13.738309
 163 Q     0.6645    0     0.000   28.704940   27.495515   33.164694
 164 Q     0.6645    0     0.000   29.101782   30.103337   34.336324
 165 Q    -1.3290    0     0.000   29.271858   29.026193   33.202488
 166 Q     0.6645    0     0.000   20.975960   15.646932   37.756728
 167 Q     0.6645    0     0.000   19.539768   13.303672   37.700036
 168 Q    -1.3290    0     0.000   20.579118   14.248535   38.304749
 169 Q     0.6645    0     0.000   12.566679   18.878364    5.234541
 170 Q     0.6645    0     0.000   10.469083   19.861022    3.401507
 171 Q    -1.3290    0     0.000   11.206076   19.577563    4.818802
 172 Q     0.6645    0     0.000   30.651358   26.437269   15.155604
 173 Q     0.6645    0     0.000   30.953714   28.232508   12.736754
 174 Q    -1.3290    0     0.000   31.029303   27.816769   14.343021
 175 Q     0.6645    0     0.000   30.594666    3.798350   34.922139
 176 Q     0.6645    0     0.000   29.271858    5.933740   35.999283
 177 Q    -1.3290    0     0.000   29.933262    4.610932   36.055975
 178 Q     0.6645    0     0.000   35.659132   21.335008   24.547542
 179 Q     0.6645    0     0.000   36.603995   21.788542   21.750748
 180 Q    -1.3290    0     0.000   36.547303   22.015309   23.357015
 181 Q     0.6645    0     0.000   27.174262    2.418849   17.801220
 182 Q     0.6645    0     0.000   27.627796    0.340151   19.218515
 183 Q    -1.3290    0     0.000   27.401029    1.795240   19.086234
 184 Q     0.6645    0     0.000   26.361680    3.514891   11.924172
 185 Q     0.6645    0     0.000   26.909700    1.511781    9.996651
 186 Q    -1.3290    0     0.000   26.380577    2.059801   11.338357
 187 Q     0.6645    0     0.000   22.563330   35.130009   24.358570
 188 Q     0.6645    0     0.000   20.144481   33.542639   25.246741
 189 Q    -1.3290    0     0.000   21.618467   33.750509   24.585337
 190 Q     0.6645    0     0.000   17.442172   33.693817   11.489535
 191 Q     0.6645    0     0.000   20.144481   34.770961   11.848583
 192 Q    -1.3290    0     0.000   18.972850   33.693817   11.886377
 193 Q     0.6645    0     0.000   18.065782   20.144481   36.622892
 194 Q     0.6645    0     0.000   17.650042   22.960173   36.528406
 195 Q    -1.3290    0     0.000   17.234302   21.486186   36.906351
 196 Q     0.6645    0     0.000   31.955269    5.499103   19.464179
 197 Q     0.6645    0     0.000   32.030858    4.648726   16.818563
 198 Q    -1.3290    0     0.000   32.446598    5.593589   17.971296
 199 Q     0.6645    0     0.000   10.601364   36.963043   28.818324
 200 Q     0.6645    0     0.000   10.280110   36.792968   25.964837
 201 Q    -1.3290    0     0.000   10.317905   37.548858   27.382132
 202 Q     0.6645    0     0.000   36.679584    9.958857   14.154049
 203 Q     0.6645    0     0.000   39.608660    9.958857   14.494199
 204 Q    -1.3290    0     0.000   38.191365    9.637603   13.757206
 205 Q     0.6645    0     0.000   12.812343   22.128693   10.620261
 206 Q     0.6645    0     0.000   14.494199   23.205837   12.793446
 207 Q    -1.3290    0     0.000   14.172946   22.317666   11.470638
 208 Q     0.6645    0     0.000   25.567995   33.958379   20.106686
 209 Q     0.6645    0     0.000   24.528645   33.391461   17.461069
[...]
 338   Q   :    0.212713065   -0.077649289    0.156721148
 339   Q   :   -0.018994368    0.054942148   -0.266539361
 340   Q   :   -0.186636804    0.028470470    0.106395719
 341   Q   :   -0.246891531    0.035385191    0.114583890
 342   Q   :    0.227595945    0.169081446    0.059953489
 343   Q   :    0.012547333   -0.188893625   -0.165858605
 344   Q   :    0.134813730   -0.175741383   -0.125156084
 345   Q   :   -0.178051710   -0.022519352    0.190380633
 346   Q   :    0.032879151    0.196888992   -0.053677401
 347   Q   :   -0.123275281    0.095325975   -0.263530222
 348   Q   :   -0.166554804   -0.194139542    0.173472573
 349   Q   :    0.292998881    0.083876864    0.093577179
 350   Q   :    0.135467667    0.199514295    0.164236970
 351   Q   :    0.116127271   -0.170672269   -0.205063565
 352   Q   :   -0.255975092   -0.019643471    0.027033756
 353   Q   :   -0.152596674    0.047154525   -0.255384995
 354   Q   :   -0.119767897    0.118181686    0.251998104
 355   Q   :    0.279305202   -0.161027605    0.011480112
 356   Q   :    0.255061391    0.070134018   -0.123232321
 357   Q   :   -0.125452996   -0.227536613   -0.035172053
 358   Q   :   -0.130276630    0.159267854    0.155073167
 359   Q   :    0.243008685    0.022664812   -0.144014631
 360   Q   :   -0.232201261    0.204008522   -0.066524865
 361   Q   :   -0.012458923   -0.219864350    0.214580906
 362   Q   :   -0.220854263   -0.065974417    0.184747471
 363   Q   :   -0.032028176   -0.084202527   -0.284522609
 364   Q   :    0.251247755    0.149776313    0.105741271
 365   Q   :   -0.219326583   -0.087484766    0.117252867
 366   Q   :    0.171325062    0.181236759    0.056166345
 367   Q   :    0.059272999   -0.100608455   -0.177497522
 368   Q   :    0.066097683    0.065081439    0.240106936
 369   Q   :    0.137202131   -0.003866433   -0.222778718
 370   Q   :   -0.198511527   -0.051343173   -0.016102764
 371   Q   :   -0.171049651    0.228928114   -0.035483750
 372   Q   :    0.275065482    0.008913670   -0.010070122
 373   Q   :   -0.103276088   -0.233807968    0.044035393
 374   Q   :    0.147263704   -0.042962363    0.194281563
 375   Q   :   -0.120857181   -0.147423498   -0.172797363
 376   Q   :   -0.022878734    0.180404490   -0.025762191
 377   Q   :   -0.066186205    0.063138984   -0.269067573
 378   Q   :    0.247564517   -0.034718795    0.086900533
 379   Q   :   -0.192181804   -0.024641566    0.179492916
 380   Q   :    0.073088625   -0.307890154   -0.025961705
 381   Q   :   -0.060549761    0.174731077   -0.188780787
 382   Q   :   -0.001488293    0.122388518    0.221399184
 383   Q   :   -0.066613692   -0.264254574    0.102703947
 384   Q   :    0.063116805    0.029582560   -0.235314729
 385   Q   :    0.007158630    0.233021756    0.143431798
 386   Q   :    0.076111213    0.012061997   -0.313798729
 387   Q   :   -0.122246622    0.191953922    0.131653063
 388   Q   :    0.051070598   -0.209818742    0.167431893
 389   Q   :   -0.044730157   -0.251170658   -0.088879657
 390   Q   :   -0.009273742    0.074051861    0.298084548
 391   Q   :    0.056784430    0.188079361   -0.213882965
 392   Q   :    0.184806029    0.053932884    0.215168155
 393   Q   :   -0.000064377    0.116873093   -0.247820003
 394   Q   :   -0.191672830   -0.175680839    0.036936180
 395   Q   :    0.084175607    0.281149981    0.008991968
 396   Q   :    0.094203984   -0.217790399   -0.170605418
 397   Q   :   -0.170230150   -0.074703139    0.165412656
 398   Q   :   -0.171535538    0.122961876    0.226452736
 399   Q   :    0.258784158   -0.042940521    0.002848830
 400   Q   :   -0.093676655   -0.085074219   -0.216889348
 401   Q   :    0.253267193    0.112240778   -0.101473030
 402   Q   :   -0.211228883    0.188861659    0.115078727
 403   Q   :   -0.034184638   -0.304891177   -0.019417795
 404   Q   :    0.092856279   -0.211189716    0.125476667
 405   Q   :   -0.259959013    0.095003224    0.038460365
 406   Q   :    0.176708962    0.127502136   -0.167939718
 407   Q   :    0.162749182   -0.147393408   -0.130915487
 408   Q   :    0.047889745    0.155991968    0.252453638
 409   Q   :   -0.195762937    0.003653174   -0.107339414
 410   Q   :    0.051156046    0.124322779    0.219415409
 411   Q   :   -0.260867637   -0.000338970   -0.156814020
 412   Q   :    0.217026965   -0.113035239   -0.065725716
 413   Q   :   -0.083936550    0.158829623    0.197809448
 414   Q   :    0.234586512   -0.110500568   -0.078104795
 415   Q   :   -0.152351111   -0.054283672   -0.117740638
 416   Q   :   -0.220777989    0.151135710    0.070925049
 417   Q   :    0.019025408   -0.243998457   -0.164023576
 418   Q   :    0.200601533    0.096911582    0.078817413
 419   Q   :   -0.254785324    0.038162478   -0.037169675
 420   Q   :    0.102312206   -0.171104062    0.212795958
 421   Q   :    0.150931568    0.136146585   -0.158189308
 422   Q   :   -0.169968004    0.239005787   -0.045593120
 423   Q   :    0.196299900   -0.080298366   -0.141861982
 424   Q   :   -0.030439837   -0.151177341    0.183332407
 425   Q   :   -0.035809798    0.187074035    0.233979870
 426   Q   :    0.256115436   -0.085934904   -0.067140784
 427   Q   :   -0.216394229   -0.082501656   -0.162139089
 428   Q   :   -0.104224266   -0.167632517    0.159270829
 429   Q   :    0.086757393    0.227001103    0.023542241
 430   Q   :    0.011083506   -0.061685655   -0.176771757
 431   Q   :    0.033078050    0.273340133   -0.062069701
 432   Q   :   -0.198174996   -0.181381469   -0.128091659
 433   Q   :    0.154882323   -0.098548668    0.175657655
 434   Q   :   -0.055341113    0.248866463   -0.180592330
 435   Q   :   -0.161363624   -0.105916339    0.215974875
 436   Q   :    0.212348898   -0.136726717   -0.021276383
 437   Q   :    0.272495531   -0.034735116   -0.079579237
 438   Q   :   -0.163123873    0.223062543   -0.090452180
 439   Q   :   -0.103858627   -0.190953710    0.174051002
 440   Q   :    0.195411367    0.095183207    0.164800868
 441   Q   :   -0.280825724   -0.012335604    0.036647428
 442   Q   :    0.094465114   -0.089530314   -0.189734753
 443   Q   :   -0.197123386    0.035579696    0.208735919
 444   Q   :    0.178420626    0.193948566   -0.065810191
 445   Q   :    0.008133321   -0.237129943   -0.134814260
 446   Q   :   -0.257596313   -0.098122156    0.088547004
 447   Q   :    0.133849603    0.218419060    0.069855293
 448   Q   :    0.115658757   -0.127243786   -0.153893342
 449   Q   :    0.298445641    0.007189411   -0.160045128
 450   Q   :   -0.230111941    0.075802303   -0.149227901
 451   Q   :   -0.063366537   -0.076168247    0.308355966
 452   Q   :   -0.261630721    0.130617557    0.101654482
 453   Q   :    0.012341542   -0.112285611   -0.260429296
 454   Q   :    0.242354124   -0.017980268    0.161711921
 455   Q   :   -0.034457762    0.224335799   -0.113233721
 456   Q   :    0.203532476   -0.083023190    0.159438108
 457   Q   :   -0.163928473   -0.135644761   -0.052058615
 458   Q   :   -0.049631815    0.245281214   -0.053140825
 459   Q   :    0.201272016   -0.136641813   -0.034235943
 460   Q   :   -0.148844150   -0.093568162    0.093082168
 461   Q   :   -0.033682158   -0.313318259    0.023980564
 462   Q   :    0.127385002    0.154234073    0.174305326
 463   Q   :   -0.096388971    0.142260187   -0.201155946
 464   Q   :   -0.237187799   -0.138100219   -0.074037262
 465   Q   :    0.196568682    0.044202687   -0.142859545
 466   Q   :    0.036368886    0.084531270    0.216092496
 467   Q   :    0.026245405    0.175228437    0.189663420
 468   Q   :   -0.226951009   -0.166171760   -0.039527117
 469   Q   :    0.206041266   -0.005862760   -0.145557686
 470   Q   :    0.033799255   -0.270438044   -0.054409752
 471   Q   :   -0.225366696    0.092610718    0.183713635
 472   Q   :    0.185744114    0.166748525   -0.125140290
 473   Q   :   -0.172564258    0.194327974    0.139214636
 474   Q   :    0.008246332   -0.066563671   -0.260537910
 475   Q   :    0.164305422   -0.119232376    0.113222276
 476   Q   :    0.084723576    0.147828125    0.235806184
 477   Q   :   -0.267453023   -0.116291078   -0.015665122
 478   Q   :    0.170854522   -0.037306822   -0.218235047
 479   Q   :   -0.223916629    0.123986591   -0.101897601
 480   Q   :    0.022891693   -0.113195163    0.221597777
 481   Q   :    0.190284760   -0.006410062   -0.127987759
 482   Q   :   -0.024818370    0.280919809   -0.086200132
 483   Q   :   -0.222050795   -0.204899310   -0.046750457
 484   Q   :    0.238448167   -0.072765927    0.127055996
 485   Q   :    0.122292831    0.043135536   -0.289268520
 486   Q   :   -0.023127565    0.228401651    0.174878321
 487   Q   :   -0.087526303   -0.266488493    0.127638601
 488   Q   :   -0.157010044   -0.097573073    0.231900930
 489   Q   :    0.130761469   -0.163883852   -0.180618996
 490   Q   :    0.024220056    0.262086766   -0.049922783
 491   Q   :   -0.180698647    0.126422898   -0.048992054
 492   Q   :   -0.052913315   -0.241869310    0.076749176
 493   Q   :    0.242168396    0.111479351   -0.027344801
 494   Q   :   -0.241174103   -0.028815877   -0.087959391
 495   Q   :    0.190145385   -0.204596071    0.010962731
 496   Q   :    0.053229715    0.234984853    0.077325722
 497   Q   :   -0.060497442   -0.182598645    0.231272082
 498   Q   :   -0.157120825    0.001033009   -0.242873884
 499   Q   :    0.218059142    0.174581106    0.007222751
 500   Q   :   -0.074322453   -0.211171444   -0.038828869
 501   Q   :    0.220621594    0.103038443   -0.038228835
 502   Q   :   -0.147881900    0.100182766    0.091531583
 503   Q   :   -0.015129718   -0.293304563   -0.012429311
 504   Q   :    0.086088390    0.146481185   -0.186146172
 505   Q   :   -0.074506533    0.154289221    0.211104592
 506   Q   :    0.159699474   -0.110118094    0.193590499
 507   Q   :   -0.308594906    0.003614546    0.006043243
 508   Q   :    0.145721166    0.105156974   -0.202396399
 509   Q   :    0.007318848    0.187951281    0.185806909
 510   Q   :   -0.058224774   -0.315403704    0.046723229
 511   Q   :    0.045368415    0.123398303   -0.231852136
 512   Q   :    0.058525827   -0.258335062    0.051055482
 513   Q   :    0.174521966    0.186642902   -0.163436078
 514   Q   :   -0.228803632    0.078228898    0.111111784
 515   Q   :   -0.012013754    0.252467486    0.093172853
 516   Q   :   -0.220028580   -0.175539660   -0.031351354
 517   Q   :    0.227145923   -0.070479347   -0.062153804
 518   Q   :    0.123074845    0.023235824   -0.246382436
 519   Q   :    0.061389242    0.097815827    0.222203248
 520   Q   :   -0.177473712   -0.116950860    0.011216941
 521   Q   :   -0.133805425    0.205055442    0.043363923
 522   Q   :   -0.099189644   -0.249623392   -0.081251189
 523   Q   :    0.238309506    0.028477857    0.043900072
 524   Q   :    0.211832403   -0.056392096    0.136588461
 525   Q   :   -0.059974461    0.037177371   -0.242342120
 526   Q   :   -0.150015301    0.018435850    0.096815348
 527   Q   :   -0.226271034   -0.166456409    0.181852819
 528   Q   :   -0.076950914    0.105579783   -0.228976855
 529   Q   :    0.301139367    0.053174164    0.053866264
 530   Q   :   -0.057953919   -0.114687020    0.228791321
 531   Q   :   -0.150918913   -0.054487572   -0.239425272
 532   Q   :    0.211462446    0.163626682    0.009376938
 533   Q   :   -0.082761895    0.009881813    0.254921617
 534   Q   :    0.228406396    0.107281281   -0.077234904
 535   Q   :   -0.137729218   -0.116388028   -0.175521788
 536   Q   :    0.270670776   -0.058757935    0.137286432
 537   Q   :   -0.076592300    0.262513676   -0.067485867
 538   Q   :   -0.188138367   -0.204247385   -0.068547840
 539   Q   :   -0.195457501    0.210620550   -0.155537678
 540   Q   :    0.140673265    0.103544195    0.198521875
 541   Q   :    0.046845627   -0.299752660   -0.055462627
 542   Q   :    0.253555632   -0.049503997   -0.093301777
 543   Q   :   -0.143385500   -0.085911758    0.159362614
 544   Q   :   -0.097802129    0.143510705   -0.072116277
 545   Q   :   -0.305932162    0.041576120    0.089058576
 546   Q   :    0.221849986    0.122506495    0.093626348
 547   Q   :    0.078043471   -0.162234299   -0.183864875
 548   Q   :    0.195901795    0.160531757    0.106158236
 549   Q   :   -0.106423296   -0.243115072    0.113212839
 550   Q   :   -0.088682956    0.076669672   -0.233406034
 551   Q   :   -0.243476883   -0.060562765   -0.152059353
 552   Q   :    0.235477497    0.179890030   -0.124626042
 553   Q   :    0.011623644   -0.115350978    0.282548890
 554   Q   :   -0.052248797   -0.225624825   -0.097381903
 555   Q   :   -0.086120951    0.249662343   -0.115344337
 556   Q   :    0.133651806   -0.009418926    0.221079773
 557   Q   :   -0.222733974   -0.142222542   -0.066378445
 558   Q   :    0.031118214    0.245717491    0.159370763
 559   Q   :    0.195525674   -0.101677245   -0.098149934
 560   Q   :    0.250839692   -0.070303737    0.139757210
 561   Q   :   -0.233642729    0.118031254    0.098710550
 562   Q   :   -0.003718320   -0.037326129   -0.244285366
 563   Q   :   -0.002388761   -0.081612712    0.278865375
 564   Q   :   -0.231987643    0.007274628   -0.154405699
 565   Q   :    0.238452774    0.074908827   -0.121999485
 566   Q   :    0.151642114   -0.254891575   -0.151575567
 567   Q   :   -0.052173837    0.235389454   -0.227312814
 568   Q   :   -0.100922989    0.014731941    0.373568984
 569   Q   :   -0.238280097    0.036356859    0.133927380
 570   Q   :    0.199117581    0.193578535   -0.093921340
 571   Q   :    0.044430405   -0.231206165   -0.042910622
 572   Q   :   -0.218596726    0.123598150   -0.173125760
 573   Q   :    0.120855129    0.123335945    0.197343307
 574   Q   :    0.101600931   -0.256069441   -0.031975444
 575   Q   :   -0.085791238    0.322244661   -0.044333594
 576   Q   :   -0.120723736   -0.221275371   -0.134734692
 577   Q   :    0.211849650   -0.099386550    0.186853381
 578   Q   :   -0.203423975   -0.180201048   -0.139657595
 579   Q   :    0.177878148   -0.112954220    0.204234130
 580   Q   :    0.027747084    0.287706106   -0.065617399
 581   Q   :   -0.036517947   -0.083108192    0.281649846
 582   Q   :    0.029181720    0.289284044   -0.054180208
 583   Q   :   -0.011550520   -0.208913823   -0.219880087
 584   Q   :   -0.267518324   -0.034744942    0.094514043
 585   Q   :    0.094388404    0.033205803   -0.278265955
 586   Q   :    0.183977368    0.003016696    0.184759861
 587   Q   :    0.291506354    0.027327587    0.041821584
 588   Q   :   -0.117048395    0.000855994   -0.269682662
 589   Q   :   -0.171493864   -0.022618189    0.222747081
 590   Q   :    0.097063294    0.053822291   -0.286761745
 591   Q   :   -0.262304929   -0.092130776    0.074667050
 592   Q   :    0.175836331    0.038614950    0.205696226
 593   Q   :   -0.257203139   -0.142819550    0.062845967
 594   Q   :    0.204924670   -0.106126949   -0.049307152
 595   Q   :    0.043272238    0.247750012   -0.001410383
 596   Q   :   -0.167345254   -0.179858452    0.151114373
 597   Q   :    0.257683119    0.040889585    0.047201209
 598   Q   :   -0.087349503    0.137840288   -0.190970440
 599   Q   :   -0.143728390    0.062576838    0.258170040
 600   Q   :   -0.075771628    0.110788214   -0.268679373
 601   Q   :    0.221516561   -0.179488708    0.016419807
 602   Q   :    0.119483465   -0.138620418    0.174404545
 603   Q   :    0.095904215    0.214615152   -0.186591678
 604   Q   :   -0.213036612   -0.063677477    0.003916818
 605   Q   :   -0.099918931    0.187778484   -0.176942887
 606   Q   :    0.001322527    0.065213508    0.298249807
 607   Q   :    0.087954841   -0.258760594   -0.115189534
 608   Q   :    0.055754610   -0.219959980   -0.109366784
 609   Q   :   -0.238029956    0.092052520    0.099931331
 610   Q   :    0.196044744    0.131331098    0.020286551
 611   Q   :   -0.165932870   -0.203205892    0.179584391
 612   Q   :    0.166441791    0.225742478    0.116857693
 613   Q   :    0.009017871   -0.020097182   -0.299363752
 614   Q   :   -0.218884550   -0.039094722    0.206269764
 615   Q   :   -0.003828512   -0.125000082   -0.264130496
 616   Q   :    0.208664447    0.160782293    0.065700160
 617   Q   :   -0.067523776   -0.270929353   -0.117349249
 618   Q   :   -0.153859162    0.231424742   -0.029290367
 619   Q   :    0.224196428    0.036534383    0.155383471
 620   Q   :   -0.223898757   -0.053474149    0.192256901
 621   Q   :    0.066935681   -0.161302875   -0.206925585
 622   Q   :    0.147147405    0.213450463    0.023388830
 623   Q   :   -0.161999900   -0.054103933    0.226168647
 624   Q   :    0.112595322   -0.186610031   -0.180993316
 625   Q   :    0.038393997    0.241845906   -0.035243013
 626   Q   :   -0.025928587   -0.202223366   -0.165391807
 627   Q   :    0.071896930   -0.001898902    0.243811838
 628   Q   :   -0.034152431    0.205149625   -0.078119281

Difference to translation invariance:
           :   -0.0002290341   -0.0001794704   -0.0003688596

Difference to rotation invariance:
           :   -0.0060336512    0.0077703806    0.0023412421

Norm of the cartesian gradient     ...    6.3712229568
RMS gradient                       ...    0.1467852287
MAX gradient                       ...    0.3735689837

-------
TIMINGS
-------

Total SCF gradient time            ...      144.610 sec

One electron gradient       ....      21.603 sec  ( 14.9%)
RI-J Coulomb gradient       ....       7.794 sec  (  5.4%)
COSX gradient               ....      86.571 sec  ( 59.9%)
XC gradient                 ....      12.783 sec  (  8.8%)

Maximum memory used throughout the entire SCFGRAD-calculation: 606.7 MB

                            ***************************************
                            *     ORCA property calculations      *
                            ***************************************

                                    ---------------------
                                    Active property flags
                                    ---------------------
   (+) Dipole Moment


------------------------------------------------------------------------------
                       ORCA ELECTRIC PROPERTIES CALCULATION
------------------------------------------------------------------------------

Dipole Moment Calculation                       ... on
Quadrupole Moment Calculation                   ... off
Polarizability Calculation                      ... off
GBWName                                         ... final049.orca.gbw
Electron density                                ... final049.orca.scfp
The origin for moment calculation is the CENTER OF MASS  = (20.687702, 21.031127 22.381787)

-------------
DIPOLE MOMENT
-------------
                                X             Y             Z
Electronic contribution:      0.33737       0.61168       0.76317
Nuclear contribution   :    -10.99168      -2.87299       4.55554
                        -----------------------------------------
Total Dipole Moment    :    -10.65430      -2.26131       5.31871
                        -----------------------------------------
Magnitude (a.u.)       :     12.12091
Magnitude (Debye)      :     30.80890



--------------------
Rotational spectrum 
--------------------
 
Rotational constants in cm-1:     0.002374     0.001865     0.001666 
Rotational constants in MHz :    71.176484    55.917131    49.938375 

 Dipole components along the rotational axes: 
x,y,z [a.u.] :     6.273921   -10.283274     1.344845 
x,y,z [Debye]:    15.947039   -26.138005     3.418324 

 

Timings for individual modules:

Sum of individual times         ...      600.190 sec (=  10.003 min)
GTO integral calculation        ...       11.389 sec (=   0.190 min)   1.9 %
SCF iterations                  ...      439.624 sec (=   7.327 min)  73.2 %
SCF Gradient evaluation         ...      149.177 sec (=   2.486 min)  24.9 %
                             ****ORCA TERMINATED NORMALLY****
TOTAL RUN TIME: 0 days 0 hours 10 minutes 7 seconds 423 msec
