
                                 *****************
                                 * O   R   C   A *
                                 *****************

                                            #,                                       
                                            ###                                      
                                            ####                                     
                                            #####                                    
                                            ######                                   
                                           ########,                                 
                                     ,,################,,,,,                         
                               ,,#################################,,                 
                          ,,##########################################,,             
                       ,#########################################, ''#####,          
                    ,#############################################,,   '####,        
                  ,##################################################,,,,####,       
                ,###########''''           ''''###############################       
              ,#####''   ,,,,##########,,,,          '''####'''          '####       
            ,##' ,,,,###########################,,,                        '##       
           ' ,,###''''                  '''############,,,                           
         ,,##''                                '''############,,,,        ,,,,,,###''
      ,#''                                            '''#######################'''  
     '                                                          ''''####''''         
             ,#######,   #######,   ,#######,      ##                                
            ,#'     '#,  ##    ##  ,#'     '#,    #''#        ######   ,####,        
            ##       ##  ##   ,#'  ##            #'  '#       #        #'  '#        
            ##       ##  #######   ##           ,######,      #####,   #    #        
            '#,     ,#'  ##    ##  '#,     ,#' ,#      #,         ##   #,  ,#        
             '#######'   ##     ##  '#######'  #'      '#     #####' # '####'        



                  #######################################################
                  #                        -***-                        #
                  #          Department of theory and spectroscopy      #
                  #    Directorship and core code : Frank Neese         #
                  #        Max Planck Institute fuer Kohlenforschung    #
                  #                Kaiser Wilhelm Platz 1               #
                  #                 D-45470 Muelheim/Ruhr               #
                  #                      Germany                        #
                  #                                                     #
                  #                  All rights reserved                #
                  #                        -***-                        #
                  #######################################################


                         Program Version 5.0.3 -  RELEASE  -


 With contributions from (in alphabetic order):
   Daniel Aravena         : Magnetic Suceptibility
   Michael Atanasov       : Ab Initio Ligand Field Theory (pilot matlab implementation)
   Alexander A. Auer      : GIAO ZORA, VPT2 properties, NMR spectrum
   Ute Becker             : Parallelization
   Giovanni Bistoni       : ED, misc. LED, open-shell LED, HFLD
   Martin Brehm           : Molecular dynamics
   Dmytro Bykov           : SCF Hessian
   Vijay G. Chilkuri      : MRCI spin determinant printing, contributions to CSF-ICE
   Dipayan Datta          : RHF DLPNO-CCSD density
   Achintya Kumar Dutta   : EOM-CC, STEOM-CC
   Dmitry Ganyushin       : Spin-Orbit,Spin-Spin,Magnetic field MRCI
   Miquel Garcia          : C-PCM and meta-GGA Hessian, CC/C-PCM, Gaussian charge scheme
   Yang Guo               : DLPNO-NEVPT2, F12-NEVPT2, CIM, IAO-localization
   Andreas Hansen         : Spin unrestricted coupled pair/coupled cluster methods
   Benjamin Helmich-Paris : MC-RPA, TRAH-SCF, COSX integrals
   Lee Huntington         : MR-EOM, pCC
   Robert Izsak           : Overlap fitted RIJCOSX, COSX-SCS-MP3, EOM
   Marcus Kettner         : VPT2
   Christian Kollmar      : KDIIS, OOCD, Brueckner-CCSD(T), CCSD density, CASPT2, CASPT2-K
   Simone Kossmann        : Meta GGA functionals, TD-DFT gradient, OOMP2, MP2 Hessian
   Martin Krupicka        : Initial AUTO-CI
   Lucas Lang             : DCDCAS
   Marvin Lechner         : AUTO-CI (C++ implementation), FIC-MRCC
   Dagmar Lenk            : GEPOL surface, SMD
   Dimitrios Liakos       : Extrapolation schemes; Compound Job, initial MDCI parallelization
   Dimitrios Manganas     : Further ROCIS development; embedding schemes
   Dimitrios Pantazis     : SARC Basis sets
   Anastasios Papadopoulos: AUTO-CI, single reference methods and gradients
   Taras Petrenko         : DFT Hessian,TD-DFT gradient, ASA, ECA, R-Raman, ABS, FL, XAS/XES, NRVS
   Peter Pinski           : DLPNO-MP2, DLPNO-MP2 Gradient
   Christoph Reimann      : Effective Core Potentials
   Marius Retegan         : Local ZFS, SOC
   Christoph Riplinger    : Optimizer, TS searches, QM/MM, DLPNO-CCSD(T), (RO)-DLPNO pert. Triples
   Tobias Risthaus        : Range-separated hybrids, TD-DFT gradient, RPA, STAB
   Michael Roemelt        : Original ROCIS implementation
   Masaaki Saitow         : Open-shell DLPNO-CCSD energy and density
   Barbara Sandhoefer     : DKH picture change effects
   Avijit Sen             : IP-ROCIS
   Kantharuban Sivalingam : CASSCF convergence, NEVPT2, FIC-MRCI
   Bernardo de Souza      : ESD, SOC TD-DFT
   Georgi Stoychev        : AutoAux, RI-MP2 NMR, DLPNO-MP2 response
   Willem Van den Heuvel  : Paramagnetic NMR
   Boris Wezisla          : Elementary symmetry handling
   Frank Wennmohs         : Technical directorship


 We gratefully acknowledge several colleagues who have allowed us to
 interface, adapt or use parts of their codes:
   Stefan Grimme, W. Hujo, H. Kruse, P. Pracht,  : VdW corrections, initial TS optimization,
                  C. Bannwarth, S. Ehlert          DFT functionals, gCP, sTDA/sTD-DF
   Ed Valeev, F. Pavosevic, A. Kumar             : LibInt (2-el integral package), F12 methods
   Garnet Chan, S. Sharma, J. Yang, R. Olivares  : DMRG
   Ulf Ekstrom                                   : XCFun DFT Library
   Mihaly Kallay                                 : mrcc  (arbitrary order and MRCC methods)
   Jiri Pittner, Ondrej Demel                    : Mk-CCSD
   Frank Weinhold                                : gennbo (NPA and NBO analysis)
   Christopher J. Cramer and Donald G. Truhlar   : smd solvation model
   Lars Goerigk                                  : TD-DFT with DH, B97 family of functionals
   V. Asgeirsson, H. Jonsson                     : NEB implementation
   FAccTs GmbH                                   : IRC, NEB, NEB-TS, DLPNO-Multilevel, CI-OPT
                                                   MM, QMMM, 2- and 3-layer-ONIOM, Crystal-QMMM,
                                                   LR-CPCM, SF, NACMEs, symmetry and pop. for TD-DFT,
                                                   nearIR, NL-DFT gradient (VV10), updates on ESD,
                                                   ML-optimized integration grids
   S Lehtola, MJT Oliveira, MAL Marques          : LibXC Library
   Liviu Ungur et al                             : ANISO software


 Your calculation uses the libint2 library for the computation of 2-el integrals
 For citations please refer to: http://libint.valeyev.net

 Your ORCA version has been built with support for libXC version: 5.1.0
 For citations please refer to: https://tddft.org/programs/libxc/

 This ORCA versions uses:
   CBLAS   interface :  Fast vector & matrix operations
   LAPACKE interface :  Fast linear algebra routines
   SCALAPACK package :  Parallel linear algebra routines
   Shared memory     :  Shared parallel matrices
   BLAS/LAPACK       :  OpenBLAS 0.3.15  USE64BITINT DYNAMIC_ARCH NO_AFFINITY SkylakeX SINGLE_THREADED
        Core in use  :  SkylakeX
   Copyright (c) 2011-2014, The OpenBLAS Project


================================================================================

----- Orbital basis set information -----
Your calculation utilizes the basis: def2-SVP
   F. Weigend and R. Ahlrichs, Phys. Chem. Chem. Phys. 7, 3297 (2005).

The basis set includes element-specific modifications.

Your calculation utilizes the basis: aug-cc-pVTZ 
    H, B-Ne : Obtained from the ccRepo (grant-hill.group.shef.ac.uk/ccrepo) Feb. 2017
              R. A. Kendall, T. H. Dunning, Jr., R. J. Harrison, J. Chem. Phys. 96, 6796 (1992)
         He : Obtained from the ccRepo (grant-hill.group.shef.ac.uk/ccrepo) Feb. 2017
              D. E. Woon, T. H. Dunning, Jr., J. Chem. Phys. 100, 2975 (1994)
  Li-Be, Na : Obtained from the ccRepo (grant-hill.group.shef.ac.uk/ccrepo) Feb. 2017
              B. P. Prascher, D. E. Woon, K. A. Peterson, T. H. Dunning, Jr., A. K. Wilson, Theor. Chem. Acc. 128, 69 (2011)
         Mg : Obtained from the Peterson Research Group Website (tyr0.chem.wsu.edu/~kipeters) Feb. 2017
              B. P. Prascher, D. E. Woon, K. A. Peterson, T. H. Dunning, Jr., A. K. Wilson, Theor. Chem. Acc. 128, 69 (2011)
      Al-Ar : Obtained from the ccRepo (grant-hill.group.shef.ac.uk/ccrepo) Feb. 2017
              D. E. Woon, T. H. Dunning, Jr., J. Chem. Phys. 98, 1358 (1993)
      Sc-Zn : Obtained from the ccRepo (grant-hill.group.shef.ac.uk/ccrepo) Feb. 2017
              N. B. Balabanov, K. A. Peterson, J. Chem. Phys. 123, 064107 (2005)
              N. B. Balabanov, K. A. Peterson, J. Chem. Phys. 125, 074110 (2006)
      Ga-Kr : Obtained from the ccRepo (grant-hill.group.shef.ac.uk/ccrepo) Feb. 2017
              A. K. Wilson, D. E. Woon, K. A. Peterson, T. H. Dunning, Jr., J. Chem. Phys. 110, 7667 (1999)
     Ag, Au : Obtained from the Peterson Research Group Website (tyr0.chem.wsu.edu/~kipeters) Feb. 2017
              K. A. Peterson, C. Puzzarini, Theor. Chem. Acc. 114, 283 (2005)

Your calculation utilizes the basis: cc-pVTZ 
       H, B-Ne : Obtained from the ccRepo (grant-hill.group.shef.ac.uk/ccrepo) Feb. 2017
                 T. H. Dunning, Jr., J. Chem. Phys. 90, 1007 (1989)
            He : Obtained from the ccRepo (grant-hill.group.shef.ac.uk/ccrepo) Feb. 2017
                 D. E. Woon, T. H. Dunning, Jr., J. Chem. Phys. 100, 2975 (1994)
  Li-Be, Na-Mg : Obtained from the ccRepo (grant-hill.group.shef.ac.uk/ccrepo) Feb. 2017
                 B. P. Prascher, D. E. Woon, K. A. Peterson, T. H. Dunning, Jr., A. K. Wilson, Theor. Chem. Acc. 128, 69 (2011)
         Al-Ar : Obtained from the ccRepo (grant-hill.group.shef.ac.uk/ccrepo) Feb. 2017
                 D. E. Woon, T. H. Dunning, Jr., J. Chem. Phys. 98, 1358 (1993)
            Ca : Obtained from the Peterson Research Group Website (tyr0.chem.wsu.edu/~kipeters) Feb. 2017
                 J. Koput, K. A. Peterson, J. Phys. Chem. 106, 9595 (2002)
         Sc-Zn : Obtained from the ccRepo (grant-hill.group.shef.ac.uk/ccrepo) Feb. 2017
                 N. B. Balabanov, K. A. Peterson, J. Chem. Phys. 123, 064107 (2005)
                 N. B. Balabanov, K. A. Peterson, J. Chem. Phys. 125, 074110 (2006)
         Ga-Kr : Obtained from the ccRepo (grant-hill.group.shef.ac.uk/ccrepo) Feb. 2017
                 A. K. Wilson, D. E. Woon, K. A. Peterson, T. H. Dunning, Jr., J. Chem. Phys. 110, 7667 (1999)
             Y : Obtained from the ccRepo (grant-hill.group.shef.ac.uk/ccrepo) Feb. 2017
                 K. A. Peterson, D. Figgen, M. Dolg, H. Stoll, J. Chem. Phys. 126, 124101 (2007)
        Ag, Au : Obtained from the Peterson Research Group Website (tyr0.chem.wsu.edu/~kipeters) Feb. 2017
                 K. A. Peterson, C. Puzzarini, Theor. Chem. Acc. 114, 283 (2005)

----- AuxJ basis set information -----
Your calculation utilizes the auxiliary basis: def2/J
   F. Weigend, Phys. Chem. Chem. Phys. 8, 1057 (2006).

================================================================================
                                        WARNINGS
                       Please study these warnings very carefully!
================================================================================

WARNING: The globally-selected AuxJ basis set is optimized for use with ECPs
         Make sure a suitable alternative is explicitly given all heavy elements (Z>36)

INFO   : the flag for use of the SHARK integral package has been found!

================================================================================
                                       INPUT FILE
================================================================================
NAME = final081.orca.inp
|  1> ! NoMOPrint PrintBasis #MINIPRINT SMALLPRINT LARGEPRINT
|  2> ! ALLPOP XYZFILE
|  3> #! BP86 3-21G   TightSCF
|  4> ! ENGRAD
|  5> ! B3LYP NormalPNO PModel #DecontractAux
|  6> #! VerySlowConv 
|  7>  %maxcore 5000
|  8>  %scf  maxiter   500  end 
|  9> 
| 10> %pal
| 11>     nprocs 32
| 12> end
| 13> 
| 14> %basis
| 15>     NewGTO O    # New basis for oxygen
| 16>         "aug-cc-pVTZ"
| 17>     end
| 18>     NewGTO C    # New basis for carbon
| 19>         "aug-cc-pVTZ"
| 20>     end
| 21>     NewGTO H    # New basis for hydrogen
| 22>         "cc-pVTZ"
| 23>     end
| 24> end
| 25> 
| 26> * xyz 0   1
| 27>   C  9.58  9.99  10.7  #1
| 28>   H  9.53  9.72  11.8  #2
| 29>   H  9.53  9.1  10.13  #3
| 30>   C  10.87  10.73  10.21  #4
| 31>   H  11.67  10.05  10.47  #5
| 32>   H  10.94  10.78  9.1  #6
| 33>   C  11.18  12.1  10.82  #7
| 34>   H  10.26  12.59  11.21  #8
| 35>   H  11.74  12.7  10.1  #9
| 36>   C  12.07  11.83  12.02  #10
| 37>   H  11.6  11.14  12.74  #11
| 38>   H  12.25  12.73  12.67  #12
| 39>   O  13.42  11.39  11.78  #13
| 40>   H  13.92  11.45  12.62  #14
| 41>   O  8.47  10.68  10.27  #15
| 42>   H  7.91  10.87  10.98  #16
| 43>   O  10.38  9.82  6.59  #17
| 44>   H  10.99  10.43  6.17  #18
| 45>   H  11.09  9.43  7.09  #19
| 46>   O  6.84  12.24  13.4  #20
| 47>   H  6.44  11.7  12.69  #21
| 48>   H  6.43  13.09  13.2  #22
| 49>   O  7.83  13  8.74  #23
| 50>   H  8.37  12.32  9.25  #24
| 51>   H  6.98  12.65  8.56  #25
| 52>   O  8.37  14.87  10.89  #26
| 53>   H  8.04  14.12  10.29  #27
| 54>   H  8.57  15.57  10.2  #28
| 55>   O  15.07  12.03  13.71  #29
| 56>   H  15.49  11.5  14.34  #30
| 57>   H  14.34  12.33  14.18  #31
| 58>   O  11.88  7.96  14.76  #32
| 59>   H  11.65  8.9  14.73  #33
| 60>   H  12.11  7.7  13.89  #34
| 61>   O  9.49  13.61  6.61  #35
| 62>   H  9.66  14.58  6.67  #36
| 63>   H  8.73  13.46  7.25  #37
| 64>   O  15.09  13.14  10.04  #38
| 65>   H  14.6  12.56  10.64  #39
| 66>   H  14.78  14.03  10.32  #40
| 67>   O  14.74  14.22  16.35  #41
| 68>   H  13.95  13.95  15.89  #42
| 69>   H  15.25  13.42  16.1  #43
| 70>   O  17.31  14.35  13.67  #44
| 71>   H  16.53  13.82  13.62  #45
| 72>   H  18  13.65  13.57  #46
| 73>   O  6.64  15.12  13.23  #47
| 74>   H  5.87  15.72  13.29  #48
| 75>   H  7.07  15.23  12.41  #49
| 76>   O  18.68  11.48  15.14  #50
| 77>   H  19.09  12.18  15.67  #51
| 78>   H  17.79  11.61  15.5  #52
| 79>   O  5.87  11.14  11.2  #53
| 80>   H  5.29  10.39  11.36  #54
| 81>   H  5.96  11.25  10.25  #55
| 82>   O  5.82  15.61  8.51  #56
| 83>   H  6.74  15.9  8.49  #57
| 84>   H  5.81  14.64  8.84  #58
| 85>   O  12.72  13.21  14.64  #59
| 86>   H  12.01  12.55  14.76  #60
| 87>   H  12.32  14.01  14.23  #61
| 88>   O  15.29  10.07  10.46  #62
| 89>   H  15.95  9.8  11.11  #63
| 90>   H  14.61  10.51  11  #64
| 91>   O  13.9  8.15  6.51  #65
| 92>   H  13.13  8.19  7.11  #66
| 93>   H  13.55  8.42  5.65  #67
| 94>   O  11.67  7.83  8.13  #68
| 95>   H  12.27  7.51  8.85  #69
| 96>   H  11.09  7.13  7.94  #70
| 97>   O  5.91  14.4  15.87  #71
| 98>   H  5.74  15.22  16.34  #72
| 99>   H  6.15  14.63  14.98  #73
|100>   O  11.56  10.76  15.09  #74
|101>   H  11.99  10.62  15.95  #75
|102>   H  10.58  10.9  15.07  #76
|103>   O  8.84  10.8  14.95  #77
|104>   H  8.27  11.25  14.28  #78
|105>   H  8.18  10.31  15.42  #79
|106>   O  5.24  12.72  8.54  #80
|107>   H  4.45  12.78  9.15  #81
|108>   H  5.01  12.03  7.93  #82
|109>   O  11.44  11.93  5.18  #83
|110>   H  10.95  12.66  5.57  #84
|111>   H  12.35  12.21  5.33  #85
|112>   O  8.61  17.2  9.04  #86
|113>   H  8.53  18.17  9.17  #87
|114>   H  8.97  17.04  8.13  #88
|115>   O  9.01  6.68  11.58  #89
|116>   H  8.13  7  11.86  #90
|117>   H  8.9  6.4  10.65  #91
|118>   O  16.11  11.83  16.25  #92
|119>   H  16.65  12.13  17.02  #93
|120>   H  15.84  11.03  16.6  #94
|121>   O  13.5  7.65  10.42  #95
|122>   H  13.02  7.62  11.25  #96
|123>   H  13.99  8.49  10.34  #97
|124>   O  7.74  9.5  7.58  #98
|125>   H  7.89  9.92  8.44  #99
|126>   H  8.62  9.57  7.17  #100
|127>   Q  0.6645  6.56$  19.46$  5.98$
|128>   Q  0.6645  5.81$  18.14$  6.25$
|129>   Q  -1.3290  6.18$  18.87$  6.46$
|130>   Q  0.6645  4.41$  4.17$  9.77$
|131>   Q  0.6645  3.03$  4.75$  10.3$
|132>   Q  -1.3290  3.86$  4.52$  10.35$
|133>   Q  0.6645  16.48$  16.94$  15.62$
|134>   Q  0.6645  17.4$  16.3$  14.56$
|135>   Q  -1.3290  17.23$  16.75$  15.25$
|136>   Q  0.6645  1.48$  8.49$  7.32$
|137>   Q  0.6645  1.36$  8.83$  5.69$
|138>   Q  -1.3290  1.75$  8.67$  6.49$
|139>   Q  0.6645  13.39$  16.55$  19.33$
|140>   Q  0.6645  14.15$  17.53$  20.33$
|141>   Q  -1.3290  13.92$  16.8$  20$
|142>   Q  0.6645  11.13$  -0.36$  11.52$
|143>   Q  0.6645  10.75$  0.69$  10.5$
|144>   Q  -1.3290  10.89$  0.4$  11.27$
|145>   Q  0.6645  5.66$  4.19$  13.37$
|146>   Q  0.6645  5.92$  5.07$  14.53$
|147>   Q  -1.3290  6.02$  4.82$  13.77$
|148>   Q  0.6645  8.26$  15.91$  17.18$
|149>   Q  0.6645  8.63$  16.3$  15.82$
|150>   Q  -1.3290  8.46$  16.47$  16.61$
|151>   Q  0.6645  21.71$  9.77$  9.84$
|152>   Q  0.6645  21.44$  10.99$  8.88$
|153>   Q  -1.3290  21.42$  10.17$  9.17$
|154>   Q  0.6645  10.3$  5.7$  3.35$
|155>   Q  0.6645  10.56$  5.65$  4.99$
|156>   Q  -1.3290  10.74$  5.54$  4.13$
|157>   Q  0.6645  9.56$  17.14$  5.81$
|158>   Q  0.6645  10.62$  16.12$  6.42$
|159>   Q  -1.3290  9.85$  16.48$  6.33$
|160>   Q  0.6645  19.93$  9.6$  7.64$
|161>   Q  0.6645  18.62$  8.8$  7.77$
|162>   Q  -1.3290  19.25$  9.17$  7.38$
|163>   Q  0.6645  7.34$  16.74$  4.66$
|164>   Q  0.6645  6.35$  17.58$  4.03$
|165>   Q  -1.3290  7.12$  17.36$  4.15$
|166>   Q  0.6645  1.97$  13.63$  10.24$
|167>   Q  0.6645  2.71$  12.23$  10.61$
|168>   Q  -1.3290  2.61$  13.04$  10.32$
|169>   Q  0.6645  8.56$  2.24$  13.05$
|170>   Q  0.6645  9.3$  0.94$  12.78$
|171>   Q  -1.3290  8.65$  1.4$  13.12$
|172>   Q  0.6645  13.76$  20.83$  9.9$
|173>   Q  0.6645  13.48$  19.51$  9.14$
|174>   Q  -1.3290  13.39$  20.32$  9.33$
|175>   Q  0.6645  12.57$  1.43$  11.99$
|176>   Q  0.6645  13.95$  1.96$  12.76$
|177>   Q  -1.3290  13.24$  1.96$  12.24$
|178>   Q  0.6645  4.52$  14.62$  5.59$
|179>   Q  0.6645  4.66$  13.06$  5.23$
|180>   Q  -1.3290  4.78$  13.92$  5.15$
|181>   Q  0.6645  15.38$  16.55$  3.16$
|182>   Q  0.6645  16.65$  17.29$  3.75$
|183>   Q  -1.3290  16.08$  16.66$  3.61$
|184>   Q  0.6645  16.31$  2.81$  9.64$
|185>   Q  0.6645  15.2$  3.15$  10.6$
|186>   Q  -1.3290  15.97$  2.89$  10.39$
|187>   Q  0.6645  7.01$  7.86$  20.33$
|188>   Q  0.6645  7.69$  7.01$  19.18$
|189>   Q  -1.3290  7.06$  7.43$  19.57$
|190>   Q  0.6645  19.87$  13.73$  11.28$
|191>   Q  0.6645  19.71$  15.17$  11.31$
|192>   Q  -1.3290  19.95$  14.46$  10.96$
|193>   Q  0.6645  12.02$  4.14$  14.52$
|194>   Q  0.6645  12.37$  3.45$  13.14$
|195>   Q  -1.3290  11.92$  3.95$  13.68$
|196>   Q  0.6645  18.31$  11.53$  9.51$
|197>   Q  0.6645  16.88$  11.85$  10.23$
|198>   Q  -1.3290  17.76$  11.68$  10.16$
|199>   Q  0.6645  17.22$  5.25$  18.36$
|200>   Q  0.6645  16.72$  6.67$  18.94$
|201>   Q  -1.3290  17.22$  6.1$  18.5$
|202>   Q  0.6645  11.11$  19.14$  8.53$
|203>   Q  0.6645  10.93$  19.11$  7$
|204>   Q  -1.3290  10.69$  19.29$  7.82$
|205>   Q  0.6645  7.11$  5.06$  7.52$
|206>   Q  0.6645  7.96$  4.09$  8.4$
|207>   Q  -1.3290  7.47$  4.31$  7.71$
|208>   Q  0.6645  14.01$  17$  7.74$
|209>   Q  0.6645  13.22$  17.15$  9.02$
|210>   Q  -1.3290  13.89$  17.25$  8.5$
|211>   Q  0.6645  10.64$  17.7$  9.4$
|212>   Q  0.6645  11.65$  18.19$  10.58$
|213>   Q  -1.3290  11.4$  17.78$  9.86$
|214>   Q  0.6645  14.36$  9.93$  1.91$
|215>   Q  0.6645  13.75$  10.18$  0.47$
|216>   Q  -1.3290  13.78$  9.87$  1.27$
|217>   Q  0.6645  15.29$  4.7$  18.11$
|218>   Q  0.6645  14.6$  5.72$  17.17$
|219>   Q  -1.3290  14.64$  5.17$  17.8$
|220>   Q  0.6645  5.42$  6.12$  6.36$
|221>   Q  0.6645  5.43$  5.02$  5.3$
|222>   Q  -1.3290  5.09$  5.47$  5.9$
|223>   Q  0.6645  3.21$  12.61$  18.05$
|224>   Q  0.6645  2.69$  13.67$  19.11$
|225>   Q  -1.3290  2.87$  12.89$  18.79$
|226>   Q  0.6645  15.79$  5.08$  11.56$
|227>   Q  0.6645  15.33$  6.34$  10.89$
|228>   Q  -1.3290  15.53$  5.87$  11.53$
|229>   Q  0.6645  4.09$  9.17$  1.6$
|230>   Q  0.6645  4.96$  10.34$  2.18$
|231>   Q  -1.3290  4.43$  9.67$  2.21$
|232>   Q  0.6645  18.15$  15.38$  5.23$
|233>   Q  0.6645  17.5$  14.95$  3.87$
|234>   Q  -1.3290  18.06$  14.92$  4.51$
|235>   Q  0.6645  1.34$  6.04$  7.79$
|236>   Q  0.6645  0.03$  6.8$  7.54$
|237>   Q  -1.3290  0.64$  6.48$  8.04$
|238>   Q  0.6645  18.7$  12.92$  18.2$
|239>   Q  0.6645  17.38$  13.86$  18.61$
|240>   Q  -1.3290  17.86$  13.24$  18.21$
|241>   Q  0.6645  9.55$  4.37$  10.61$
|242>   Q  0.6645  10.4$  4.04$  9.39$
|243>   Q  -1.3290  9.68$  4.3$  9.8$
|244>   Q  0.6645  17.59$  11.64$  4.64$
|245>   Q  0.6645  17.71$  13.1$  4.96$
|246>   Q  -1.3290  17.6$  12.31$  5.17$
|247>   Q  0.6645  3.96$  10.83$  4.5$
|248>   Q  0.6645  5.43$  11.03$  4.87$
|249>   Q  -1.3290  4.6$  11.19$  4.9$
|250>   Q  0.6645  8.42$  0.92$  8.21$
|251>   Q  0.6645  7.57$  0.41$  6.99$
|252>   Q  -1.3290  7.75$  0.87$  7.72$
|253>   Q  0.6645  12.15$  15.79$  13$
|254>   Q  0.6645  11$  16.02$  14.11$
|255>   Q  -1.3290  11.81$  15.95$  13.82$
|256>   Q  0.6645  13.43$  15.66$  11.21$
|257>   Q  0.6645  11.99$  15.9$  10.73$
|258>   Q  -1.3290  12.58$  15.63$  11.25$
|259>   Q  0.6645  17.42$  19.49$  9.78$
|260>   Q  0.6645  16.7$  18.83$  11.05$
|261>   Q  -1.3290  17.21$  19.41$  10.6$
|262>   Q  0.6645  6.09$  10.05$  7.4$
|263>   Q  0.6645  4.69$  10.29$  6.66$
|264>   Q  -1.3290  5.23$  10.13$  7.34$
|265>   Q  0.6645  15.7$  4.32$  4.46$
|266>   Q  0.6645  16.91$  5.26$  4.59$
|267>   Q  -1.3290  16.26$  4.79$  4.86$
|268>   Q  0.6645  10.75$  19.1$  12.37$
|269>   Q  0.6645  12.14$  19.85$  12.31$
|270>   Q  -1.3290  11.4$  19.51$  12.01$
|271>   Q  0.6645  9.43$  3.85$  4.69$
|272>   Q  0.6645  8.49$  3.54$  5.98$
|273>   Q  -1.3290  9.12$  3.4$  5.39$
|274>   Q  0.6645  10.84$  -0.01$  8.18$
|275>   Q  0.6645  10.86$  1.41$  8.26$
|276>   Q  -1.3290  10.57$  0.71$  8.48$
|277>   Q  0.6645  17.6$  9.02$  5.53$
|278>   Q  0.6645  17.59$  8.11$  4.35$
|279>   Q  -1.3290  17.61$  8.84$  4.75$
|280>   Q  0.6645  4.01$  9.72$  13.4$
|281>   Q  0.6645  3.6$  8.74$  12.3$
|282>   Q  -1.3290  3.91$  9.47$  12.57$
|283>   Q  0.6645  11.21$  10.53$  1.74$
|284>   Q  0.6645  10.82$  10.98$  3.23$
|285>   Q  -1.3290  10.78$  10.5$  2.5$
|286>   Q  0.6645  8.61$  3.77$  16.29$
|287>   Q  0.6645  8.06$  4.36$  15.06$
|288>   Q  -1.3290  8.48$  4.38$  15.75$
|289>   Q  0.6645  5.17$  17.6$  14.76$
|290>   Q  0.6645  4.49$  17.88$  13.52$
|291>   Q  -1.3290  4.7$  17.39$  14.13$
|292>   Q  0.6645  9.13$  19.64$  13.71$
|293>   Q  0.6645  8.2$  18.89$  12.64$
|294>   Q  -1.3290  8.84$  18.98$  13.23$
|295>   Q  0.6645  13.08$  7.19$  18.89$
|296>   Q  0.6645  12.91$  7.61$  20.43$
|297>   Q  -1.3290  12.84$  7.66$  19.55$
|298>   Q  0.6645  0.9$  12.81$  5.76$
|299>   Q  0.6645  -0.09$  12.41$  4.57$
|300>   Q  -1.3290  0.25$  12.9$  5.18$
|301>   Q  0.6645  5.05$  1.91$  9.01$
|302>   Q  0.6645  5.76$  2.97$  8.11$
|303>   Q  -1.3290  5.1$  2.65$  8.56$
|304>   Q  0.6645  17.48$  6.47$  14.32$
|305>   Q  0.6645  16.46$  6.43$  13.25$
|306>   Q  -1.3290  16.73$  6.63$  14$
|307>   Q  0.6645  6.24$  6.97$  8.51$
|308>   Q  0.6645  7.06$  7.65$  7.25$
|309>   Q  -1.3290  6.64$  7.03$  7.73$
|310>   Q  0.6645  18.12$  20.02$  13.71$
|311>   Q  0.6645  17.82$  18.78$  14.66$
|312>   Q  -1.3290  17.64$  19.46$  14.13$
|313>   Q  0.6645  12.36$  8.45$  3.01$
|314>   Q  0.6645  12.19$  7.03$  3.72$
|315>   Q  -1.3290  12.62$  7.74$  3.43$
|316>   Q  0.6645  14.95$  11.59$  21.51$
|317>   Q  0.6645  14.09$  11.87$  20.27$
|318>   Q  -1.3290  14.29$  11.46$  20.96$
|319>   Q  0.6645  15.85$  16.95$  17.63$
|320>   Q  0.6645  15.3$  15.71$  16.84$
|321>   Q  -1.3290  15.32$  16.52$  17.09$
|322>   Q  0.6645  19.99$  15$  7.01$
|323>   Q  0.6645  20.94$  13.96$  6.31$
|324>   Q  -1.3290  20.43$  14.29$  6.96$
|325>   Q  0.6645  19.11$  12.02$  13.28$
|326>   Q  0.6645  18.76$  12.06$  11.8$
|327>   Q  -1.3290  19.17$  12.34$  12.51$
|328>   Q  0.6645  15.59$  9.98$  8.45$
|329>   Q  0.6645  15.06$  9.24$  7.21$
|330>   Q  -1.3290  15.52$  9.81$  7.63$
|331>   Q  0.6645  18.42$  14.79$  9.33$
|332>   Q  0.6645  17.04$  14.7$  8.87$
|333>   Q  -1.3290  17.73$  15.1$  8.98$
|334>   Q  0.6645  5.13$  16.66$  10.2$
|335>   Q  0.6645  4.26$  17.82$  10.64$
|336>   Q  -1.3290  4.91$  17.27$  10.68$
|337>   Q  0.6645  19.29$  17.27$  12.71$
|338>   Q  0.6645  20.2$  18.42$  12.52$
|339>   Q  -1.3290  19.83$  17.85$  12.98$
|340>   Q  0.6645  9.01$  13.2$  1.25$
|341>   Q  0.6645  8.76$  14.21$  0.13$
|342>   Q  -1.3290  9.2$  13.63$  0.57$
|343>   Q  0.6645  18.24$  9.61$  18.16$
|344>   Q  0.6645  19.31$  10.24$  17.13$
|345>   Q  -1.3290  18.7$  9.7$  17.39$
|346>   Q  0.6645  20.55$  11.32$  18.24$
|347>   Q  0.6645  21.2$  11.87$  16.93$
|348>   Q  -1.3290  20.58$  11.75$  17.52$
|349>   Q  0.6645  2.68$  12.72$  8.23$
|350>   Q  0.6645  2.27$  11.33$  7.74$
|351>   Q  -1.3290  2.48$  12.13$  7.66$
|352>   Q  0.6645  11.95$  17.5$  17.44$
|353>   Q  0.6645  13.19$  16.69$  17.19$
|354>   Q  -1.3290  12.46$  16.86$  17.53$
|355>   Q  0.6645  15.14$  19.76$  5.49$
|356>   Q  0.6645  14.69$  19.23$  6.93$
|357>   Q  -1.3290  15.23$  19.4$  6.25$
|358>   Q  0.6645  7.78$  11.78$  4.18$
|359>   Q  0.6645  8.1$  11.31$  5.53$
|360>   Q  -1.3290  7.65$  11.28$  4.86$
|361>   Q  0.6645  8.43$  15.57$  13.93$
|362>   Q  0.6645  8.99$  17.01$  13.99$
|363>   Q  -1.3290  8.98$  16.18$  14.2$
|364>   Q  0.6645  3.96$  9.04$  8.66$
|365>   Q  0.6645  3.62$  8.09$  9.71$
|366>   Q  -1.3290  3.43$  8.57$  9.09$
|367>   Q  0.6645  14.28$  18.48$  17.4$
|368>   Q  0.6645  14.61$  19.93$  16.85$
|369>   Q  -1.3290  14.12$  19.28$  17.13$
|370>   Q  0.6645  11.62$  5.74$  16.16$
|371>   Q  0.6645  12.83$  4.86$  16.46$
|372>   Q  -1.3290  12.01$  5$  16.32$
|373>   Q  0.6645  13.31$  3.46$  11.07$
|374>   Q  0.6645  13.75$  4.93$  10.73$
|375>   Q  -1.3290  13.65$  4.09$  10.59$
|376>   Q  0.6645  2.69$  10.29$  11.58$
|377>   Q  0.6645  2.06$  9.91$  10.23$
|378>   Q  -1.3290  2.11$  10.33$  10.95$
|379>   Q  0.6645  14.26$  13.2$  18.19$
|380>   Q  0.6645  12.79$  13.44$  18.44$
|381>   Q  -1.3290  13.52$  13.02$  18.52$
|382>   Q  0.6645  3.82$  8.26$  5.24$
|383>   Q  0.6645  4.37$  8.64$  3.83$
|384>   Q  -1.3290  4.38$  8.28$  4.61$
|385>   Q  0.6645  15.48$  8.35$  16.81$
|386>   Q  0.6645  16.88$  9.05$  17.23$
|387>   Q  -1.3290  16.02$  8.96$  17.1$
|388>   Q  0.6645  15.18$  16.34$  10.07$
|389>   Q  0.6645  15.7$  16.33$  11.54$
|390>   Q  -1.3290  15.38$  15.99$  10.79$
|391>   Q  0.6645  1.43$  5.91$  13.61$
|392>   Q  0.6645  2.71$  5.18$  14.1$
|393>   Q  -1.3290  2.19$  5.84$  13.95$
|394>   Q  0.6645  19.07$  5.96$  9.24$
|395>   Q  0.6645  19.44$  4.82$  8.27$
|396>   Q  -1.3290  19.03$  5.16$  8.94$
|397>   Q  0.6645  6.81$  7.99$  16$
|398>   Q  0.6645  8.3$  8.19$  16.17$
|399>   Q  -1.3290  7.54$  8.41$  15.94$
|400>   Q  0.6645  15.49$  5.24$  6.63$
|401>   Q  0.6645  14.68$  6.46$  6.94$
|402>   Q  -1.3290  14.93$  5.69$  7.08$
|403>   Q  0.6645  18.65$  9.05$  20.42$
|404>   Q  0.6645  17.15$  9.14$  20.01$
|405>   Q  -1.3290  17.98$  9.36$  20.03$
|406>   Q  0.6645  3.63$  10.86$  15.74$
|407>   Q  0.6645  2.35$  10.8$  15$
|408>   Q  -1.3290  3.09$  10.5$  15.23$
|409>   Q  0.6645  10.02$  10.57$  17.91$
|410>   Q  0.6645  8.56$  10.73$  18.41$
|411>   Q  -1.3290  9.34$  10.36$  18.35$
|412>   Q  0.6645  15.77$  15.3$  19.93$
|413>   Q  0.6645  16.91$  14.9$  20.95$
|414>   Q  -1.3290  16.6$  15.15$  20.18$
|415>   Q  0.6645  9.4$  6.21$  15.89$
|416>   Q  0.6645  10.36$  7.56$  15.72$
|417>   Q  -1.3290  9.82$  6.99$  16.11$
|418>   Q  0.6645  13.01$  18.81$  15.54$
|419>   Q  0.6645  12.42$  17.7$  14.66$
|420>   Q  -1.3290  12.44$  18.49$  15.01$
|421>   Q  0.6645  18.58$  8.13$  10.23$
|422>   Q  0.6645  19.72$  8.47$  9.28$
|423>   Q  -1.3290  19.23$  7.95$  9.71$
|424>   Q  0.6645  14.85$  7.12$  15.05$
|425>   Q  0.6645  13.44$  7.35$  15.41$
|426>   Q  -1.3290  14.16$  7.03$  15.53$
|427>   Q  0.6645  10.04$  17.48$  3.33$
|428>   Q  0.6645  8.9$  18.29$  3.78$
|429>   Q  -1.3290  9.71$  18.11$  3.73$
|430>   Q  0.6645  14.07$  20.41$  13.66$
|431>   Q  0.6645  14.37$  21.04$  12.26$
|432>   Q  -1.3290  13.9$  20.71$  12.92$
|433>   Q  0.6645  11.34$  7.76$  0.51$
|434>   Q  0.6645  12.88$  8.05$  0.82$
|435>   Q  -1.3290  12.2$  7.61$  0.54$
|436>   Q  0.6645  13.58$  4.43$  5.91$
|437>   Q  0.6645  12.41$  4.12$  5.06$
|438>   Q  -1.3290  12.84$  4.11$  5.76$
|439>   Q  0.6645  3.71$  4.94$  7.08$
|440>   Q  0.6645  3.25$  3.93$  8.18$
|441>   Q  -1.3290  3.14$  4.54$  7.59$
|442>   Q  0.6645  17.72$  15.79$  12.06$
|443>   Q  0.6645  17.7$  16.65$  10.83$
|444>   Q  -1.3290  17.99$  16.4$  11.59$
|445>   Q  0.6645  19.77$  12.64$  7.59$
|446>   Q  0.6645  18.97$  11.44$  7.03$
|447>   Q  -1.3290  19.34$  11.91$  7.63$
|448>   Q  0.6645  2.77$  16.6$  14.31$
|449>   Q  0.6645  1.4$  17.4$  14.89$
|450>   Q  -1.3290  1.91$  16.86$  14.41$
|451>   Q  0.6645  5.11$  7.88$  19.17$
|452>   Q  0.6645  3.76$  7.89$  18.23$
|453>   Q  -1.3290  4.28$  8.04$  18.91$
|454>   Q  0.6645  18.91$  6.83$  17.99$
|455>   Q  0.6645  20$  7.86$  17.38$
|456>   Q  -1.3290  19.7$  7.12$  17.65$
|457>   Q  0.6645  22.37$  10.4$  12.45$
|458>   Q  0.6645  20.97$  11.08$  12.78$
|459>   Q  -1.3290  21.66$  10.61$  12.88$
|460>   Q  0.6645  7.52$  13.43$  16.81$
|461>   Q  0.6645  7.76$  13.66$  18.38$
|462>   Q  -1.3290  7.95$  13.6$  17.53$
|463>   Q  0.6645  9.6$  18.06$  16.98$
|464>   Q  0.6645  10.65$  19.01$  16.37$
|465>   Q  -1.3290  10.2$  18.68$  16.97$
|466>   Q  0.6645  10.68$  15.28$  2.73$
|467>   Q  0.6645  9.55$  15.23$  3.83$
|468>   Q  -1.3290  10.33$  15.39$  3.5$
|469>   Q  0.6645  15.35$  11.17$  4.08$
|470>   Q  0.6645  16.25$  9.96$  4.08$
|471>   Q  -1.3290  15.89$  10.65$  3.73$
|472>   Q  0.6645  20.1$  6.97$  12.86$
|473>   Q  0.6645  20.73$  8.23$  13.32$
|474>   Q  -1.3290  20.32$  7.76$  12.76$
|475>   Q  0.6645  15.47$  6.96$  20.43$
|476>   Q  0.6645  14.89$  8.19$  19.75$
|477>   Q  -1.3290  15.48$  7.74$  20.16$
|478>   Q  0.6645  15.85$  4.16$  7.91$
|479>   Q  0.6645  17.23$  4.02$  8.2$
|480>   Q  -1.3290  16.52$  3.72$  7.96$
|481>   Q  0.6645  18.29$  17.25$  6.12$
|482>   Q  0.6645  18.24$  16.24$  7.39$
|483>   Q  -1.3290  18.49$  16.56$  6.61$
|484>   Q  0.6645  5.96$  7.07$  10.96$
|485>   Q  0.6645  5.02$  6.22$  10.26$
|486>   Q  -1.3290  5.56$  6.81$  10.3$
|487>   Q  0.6645  9.43$  9.31$  20.19$
|488>   Q  0.6645  10.61$  9.89$  20.92$
|489>   Q  -1.3290  10$  9.33$  20.8$
|490>   Q  0.6645  7.43$  11.76$  1.84$
|491>   Q  0.6645  8.84$  11.22$  2.15$
|492>   Q  -1.3290  8.2$  11.77$  2.22$
|493>   Q  0.6645  17.72$  18.07$  18.83$
|494>   Q  0.6645  16.62$  16.93$  19.3$
|495>   Q  -1.3290  16.94$  17.67$  18.92$
|496>   Q  0.6645  6.49$  18.47$  11.27$
|497>   Q  0.6645  7.12$  19.71$  10.57$
|498>   Q  -1.3290  6.84$  19.26$  11.23$
|499>   Q  0.6645  8.66$  4.85$  12.61$
|500>   Q  0.6645  9.92$  4.05$  13.14$
|501>   Q  -1.3290  9.13$  4.18$  12.82$
|502>   Q  0.6645  19.07$  16.48$  16.01$
|503>   Q  0.6645  20.51$  16.92$  16.19$
|504>   Q  -1.3290  19.87$  16.37$  16.21$
|505>   Q  0.6645  3.82$  13.41$  3.44$
|506>   Q  0.6645  3.86$  13.69$  1.82$
|507>   Q  -1.3290  3.6$  13.32$  2.59$
|508>   Q  0.6645  6.09$  6.03$  16.78$
|509>   Q  0.6645  4.8$  6.56$  16.08$
|510>   Q  -1.3290  5.66$  6.47$  16.2$
|511>   Q  0.6645  8.84$  19.88$  8.37$
|512>   Q  0.6645  7.36$  19.4$  8.07$
|513>   Q  -1.3290  8.03$  19.69$  8.54$
|514>   Q  0.6645  11.31$  20.67$  14.37$
|515>   Q  0.6645  10.45$  21.49$  15.22$
|516>   Q  -1.3290  10.59$  20.91$  14.67$
|517>   Q  0.6645  2.14$  7.06$  17$
|518>   Q  0.6645  2.61$  7.98$  15.86$
|519>   Q  -1.3290  2.61$  7.67$  16.65$
|520>   Q  0.6645  12.36$  11.51$  21.36$
|521>   Q  0.6645  11.1$  12.38$  21.65$
|522>   Q  -1.3290  11.56$  11.67$  21.62$
|523>   Q  0.6645  11.94$  5.71$  12.99$
|524>   Q  0.6645  10.97$  6.75$  12.43$
|525>   Q  -1.3290  11.74$  6.45$  12.62$
|526>   Q  0.6645  18.63$  8.7$  12.23$
|527>   Q  0.6645  18.05$  9.76$  11.33$
|528>   Q  -1.3290  18.02$  9.04$  11.76$
|529>   Q  0.6645  15.68$  15.29$  6.49$
|530>   Q  0.6645  15.54$  16.47$  5.58$
|531>   Q  -1.3290  15.26$  15.95$  6.15$
|532>   Q  0.6645  4.22$  3.17$  11.71$
|533>   Q  0.6645  4.83$  1.79$  12.26$
|534>   Q  -1.3290  4.52$  2.6$  12.3$
|535>   Q  0.6645  5.33$  9.78$  18.14$
|536>   Q  0.6645  6.75$  9.38$  17.77$
|537>   Q  -1.3290  6.14$  9.93$  17.95$
|538>   Q  0.6645  6.72$  17.65$  16.44$
|539>   Q  0.6645  6.43$  19.13$  16.36$
|540>   Q  -1.3290  6.27$  18.33$  16.24$
|541>   Q  0.6645  15.45$  13.22$  8.17$
|542>   Q  0.6645  16.44$  12.84$  6.98$
|543>   Q  -1.3290  15.88$  13.33$  7.42$
|544>   Q  0.6645  0.21$  11.4$  14.67$
|545>   Q  0.6645  0.82$  12.61$  15.54$
|546>   Q  -1.3290  0.6$  11.77$  15.35$
|547>   Q  0.6645  6.22$  7.91$  4.76$
|548>   Q  0.6645  7.41$  8.86$  4.93$
|549>   Q  -1.3290  7.04$  8.12$  4.83$
|550>   Q  0.6645  6.51$  6.55$  13.29$
|551>   Q  0.6645  7.06$  7.99$  13.54$
|552>   Q  -1.3290  6.86$  7.32$  13.07$
|553>   Q  0.6645  14.59$  18.53$  12.74$
|554>   Q  0.6645  16.14$  18.6$  12.97$
|555>   Q  -1.3290  15.4$  18.34$  12.62$
|556>   Q  0.6645  12.59$  10.94$  18.31$
|557>   Q  0.6645  12.12$  9.35$  18.18$
|558>   Q  -1.3290  12.33$  10.17$  17.94$
|559>   Q  0.6645  20.24$  8.95$  15.44$
|560>   Q  0.6645  21.54$  9.58$  15.99$
|561>   Q  -1.3290  21.06$  8.98$  15.67$
|562>   Q  0.6645  14.53$  12.87$  5.95$
|563>   Q  0.6645  14.52$  11.45$  6.53$
|564>   Q  -1.3290  14.29$  12.05$  5.98$
|565>   Q  0.6645  3.36$  6.48$  12.14$
|566>   Q  0.6645  2.3$  7.28$  11.31$
|567>   Q  -1.3290  3.06$  7.09$  11.63$
|568>   Q  0.6645  9.74$  6.99$  18.18$
|569>   Q  0.6645  10.17$  7.43$  19.61$
|570>   Q  -1.3290  9.7$  7$  19.03$
|571>   Q  0.6645  -0.06$  14.87$  9.8$
|572>   Q  0.6645  0.98$  15.83$  10.31$
|573>   Q  -1.3290  0.68$  15.24$  9.78$
|574>   Q  0.6645  4.93$  12.94$  16.46$
|575>   Q  0.6645  5.19$  11.69$  17.22$
|576>   Q  -1.3290  4.7$  12.25$  16.86$
|577>   Q  0.6645  8.88$  6.04$  6.98$
|578>   Q  0.6645  10.02$  5.09$  7.04$
|579>   Q  -1.3290  9.67$  5.83$  6.86$
|580>   Q  0.6645  9.63$  8.97$  2.64$
|581>   Q  0.6645  8.58$  8.09$  3.31$
|582>   Q  -1.3290  9.03$  8.38$  2.66$
|583>   Q  0.6645  13.37$  15.87$  6$
|584>   Q  0.6645  12.13$  15.72$  4.99$
|585>   Q  -1.3290  12.53$  15.99$  5.71$
|586>   Q  0.6645  12.54$  18.17$  5.36$
|587>   Q  0.6645  11.62$  19.2$  4.64$
|588>   Q  -1.3290  12.06$  18.89$  5.3$
|589>   Q  0.6645  9.01$  14.66$  19.66$
|590>   Q  0.6645  8.77$  15.98$  20.3$
|591>   Q  -1.3290  8.59$  15.17$  20.16$
|592>   Q  0.6645  14.32$  6.86$  2.43$
|593>   Q  0.6645  15.31$  7.62$  1.41$
|594>   Q  -1.3290  14.99$  6.95$  1.87$
|595>   Q  0.6645  7.12$  6.01$  4.18$
|596>   Q  0.6645  7.24$  4.77$  3.32$
|597>   Q  -1.3290  7.04$  5.21$  4.01$
|598>   Q  0.6645  10.52$  14.2$  17.52$
|599>   Q  0.6645  11.32$  15.4$  18.01$
|600>   Q  -1.3290  10.91$  14.69$  18.11$
|601>   Q  0.6645  6.65$  14.49$  4.71$
|602>   Q  0.6645  8.16$  14.35$  5.27$
|603>   Q  -1.3290  7.52$  14.6$  4.76$
|604>   Q  0.6645  19.79$  5.99$  15.48$
|605>   Q  0.6645  18.72$  5.02$  14.77$
|606>   Q  -1.3290  19.37$  5.59$  14.82$
|607>   Q  0.6645  0.46$  7.51$  9.8$
|608>   Q  0.6645  -0.36$  7.74$  11.03$
|609>   Q  -1.3290  0.31$  7.85$  10.56$
|610>   Q  0.6645  9.31$  3.73$  18.22$
|611>   Q  0.6645  10.52$  3.75$  17.27$
|612>   Q  -1.3290  9.93$  3.4$  17.75$
|613>   Q  0.6645  5.08$  16.25$  6.97$
|614>   Q  0.6645  3.95$  16.66$  6$
|615>   Q  -1.3290  4.76$  16.48$  6.24$
|616>   Q  0.6645  11.96$  3.56$  7.64$
|617>   Q  0.6645  12.38$  3.62$  9.11$
|618>   Q  -1.3290  11.86$  3.48$  8.46$
|619> *
|620> 
|621>                          ****END OF INPUT****
================================================================================

                     *******************************
                     * Energy+Gradient Calculation *
                     *******************************

---------------------------------
CARTESIAN COORDINATES (ANGSTROEM)
---------------------------------
  C      9.580000    9.990000   10.700000
  H      9.530000    9.720000   11.800000
  H      9.530000    9.100000   10.130000
  C     10.870000   10.730000   10.210000
  H     11.670000   10.050000   10.470000
  H     10.940000   10.780000    9.100000
  C     11.180000   12.100000   10.820000
  H     10.260000   12.590000   11.210000
  H     11.740000   12.700000   10.100000
  C     12.070000   11.830000   12.020000
  H     11.600000   11.140000   12.740000
  H     12.250000   12.730000   12.670000
  O     13.420000   11.390000   11.780000
  H     13.920000   11.450000   12.620000
  O      8.470000   10.680000   10.270000
  H      7.910000   10.870000   10.980000
  O     10.380000    9.820000    6.590000
  H     10.990000   10.430000    6.170000
  H     11.090000    9.430000    7.090000
  O      6.840000   12.240000   13.400000
  H      6.440000   11.700000   12.690000
  H      6.430000   13.090000   13.200000
  O      7.830000   13.000000    8.740000
  H      8.370000   12.320000    9.250000
  H      6.980000   12.650000    8.560000
  O      8.370000   14.870000   10.890000
  H      8.040000   14.120000   10.290000
  H      8.570000   15.570000   10.200000
  O     15.070000   12.030000   13.710000
  H     15.490000   11.500000   14.340000
  H     14.340000   12.330000   14.180000
  O     11.880000    7.960000   14.760000
  H     11.650000    8.900000   14.730000
  H     12.110000    7.700000   13.890000
  O      9.490000   13.610000    6.610000
  H      9.660000   14.580000    6.670000
  H      8.730000   13.460000    7.250000
  O     15.090000   13.140000   10.040000
  H     14.600000   12.560000   10.640000
  H     14.780000   14.030000   10.320000
  O     14.740000   14.220000   16.350000
  H     13.950000   13.950000   15.890000
  H     15.250000   13.420000   16.100000
  O     17.310000   14.350000   13.670000
  H     16.530000   13.820000   13.620000
  H     18.000000   13.650000   13.570000
  O      6.640000   15.120000   13.230000
  H      5.870000   15.720000   13.290000
  H      7.070000   15.230000   12.410000
  O     18.680000   11.480000   15.140000
  H     19.090000   12.180000   15.670000
  H     17.790000   11.610000   15.500000
  O      5.870000   11.140000   11.200000
  H      5.290000   10.390000   11.360000
  H      5.960000   11.250000   10.250000
  O      5.820000   15.610000    8.510000
  H      6.740000   15.900000    8.490000
  H      5.810000   14.640000    8.840000
  O     12.720000   13.210000   14.640000
  H     12.010000   12.550000   14.760000
  H     12.320000   14.010000   14.230000
  O     15.290000   10.070000   10.460000
  H     15.950000    9.800000   11.110000
  H     14.610000   10.510000   11.000000
  O     13.900000    8.150000    6.510000
  H     13.130000    8.190000    7.110000
  H     13.550000    8.420000    5.650000
  O     11.670000    7.830000    8.130000
  H     12.270000    7.510000    8.850000
  H     11.090000    7.130000    7.940000
  O      5.910000   14.400000   15.870000
  H      5.740000   15.220000   16.340000
  H      6.150000   14.630000   14.980000
  O     11.560000   10.760000   15.090000
  H     11.990000   10.620000   15.950000
  H     10.580000   10.900000   15.070000
  O      8.840000   10.800000   14.950000
  H      8.270000   11.250000   14.280000
  H      8.180000   10.310000   15.420000
  O      5.240000   12.720000    8.540000
  H      4.450000   12.780000    9.150000
  H      5.010000   12.030000    7.930000
  O     11.440000   11.930000    5.180000
  H     10.950000   12.660000    5.570000
  H     12.350000   12.210000    5.330000
  O      8.610000   17.200000    9.040000
  H      8.530000   18.170000    9.170000
  H      8.970000   17.040000    8.130000
  O      9.010000    6.680000   11.580000
  H      8.130000    7.000000   11.860000
  H      8.900000    6.400000   10.650000
  O     16.110000   11.830000   16.250000
  H     16.650000   12.130000   17.020000
  H     15.840000   11.030000   16.600000
  O     13.500000    7.650000   10.420000
  H     13.020000    7.620000   11.250000
  H     13.990000    8.490000   10.340000
  O      7.740000    9.500000    7.580000
  H      7.890000    9.920000    8.440000
  H      8.620000    9.570000    7.170000
  Q      6.560000   19.460000    5.980000
  Q      5.810000   18.140000    6.250000
  Q      6.180000   18.870000    6.460000
  Q      4.410000    4.170000    9.770000
  Q      3.030000    4.750000   10.300000
  Q      3.860000    4.520000   10.350000
  Q     16.480000   16.940000   15.620000
  Q     17.400000   16.300000   14.560000
  Q     17.230000   16.750000   15.250000
  Q      1.480000    8.490000    7.320000
  Q      1.360000    8.830000    5.690000
  Q      1.750000    8.670000    6.490000
  Q     13.390000   16.550000   19.330000
  Q     14.150000   17.530000   20.330000
  Q     13.920000   16.800000   20.000000
  Q     11.130000   -0.360000   11.520000
  Q     10.750000    0.690000   10.500000
  Q     10.890000    0.400000   11.270000
  Q      5.660000    4.190000   13.370000
  Q      5.920000    5.070000   14.530000
  Q      6.020000    4.820000   13.770000
  Q      8.260000   15.910000   17.180000
  Q      8.630000   16.300000   15.820000
  Q      8.460000   16.470000   16.610000
  Q     21.710000    9.770000    9.840000
  Q     21.440000   10.990000    8.880000
  Q     21.420000   10.170000    9.170000
  Q     10.300000    5.700000    3.350000
  Q     10.560000    5.650000    4.990000
  Q     10.740000    5.540000    4.130000
  Q      9.560000   17.140000    5.810000
  Q     10.620000   16.120000    6.420000
  Q      9.850000   16.480000    6.330000
  Q     19.930000    9.600000    7.640000
  Q     18.620000    8.800000    7.770000
  Q     19.250000    9.170000    7.380000
  Q      7.340000   16.740000    4.660000
  Q      6.350000   17.580000    4.030000
  Q      7.120000   17.360000    4.150000
  Q      1.970000   13.630000   10.240000
  Q      2.710000   12.230000   10.610000
  Q      2.610000   13.040000   10.320000
  Q      8.560000    2.240000   13.050000
  Q      9.300000    0.940000   12.780000
  Q      8.650000    1.400000   13.120000
  Q     13.760000   20.830000    9.900000
  Q     13.480000   19.510000    9.140000
  Q     13.390000   20.320000    9.330000
  Q     12.570000    1.430000   11.990000
  Q     13.950000    1.960000   12.760000
  Q     13.240000    1.960000   12.240000
  Q      4.520000   14.620000    5.590000
  Q      4.660000   13.060000    5.230000
  Q      4.780000   13.920000    5.150000
  Q     15.380000   16.550000    3.160000
  Q     16.650000   17.290000    3.750000
  Q     16.080000   16.660000    3.610000
  Q     16.310000    2.810000    9.640000
  Q     15.200000    3.150000   10.600000
  Q     15.970000    2.890000   10.390000
  Q      7.010000    7.860000   20.330000
  Q      7.690000    7.010000   19.180000
  Q      7.060000    7.430000   19.570000
  Q     19.870000   13.730000   11.280000
  Q     19.710000   15.170000   11.310000
  Q     19.950000   14.460000   10.960000
  Q     12.020000    4.140000   14.520000
  Q     12.370000    3.450000   13.140000
  Q     11.920000    3.950000   13.680000
  Q     18.310000   11.530000    9.510000
  Q     16.880000   11.850000   10.230000
  Q     17.760000   11.680000   10.160000
  Q     17.220000    5.250000   18.360000
  Q     16.720000    6.670000   18.940000
  Q     17.220000    6.100000   18.500000
  Q     11.110000   19.140000    8.530000
  Q     10.930000   19.110000    7.000000
  Q     10.690000   19.290000    7.820000
  Q      7.110000    5.060000    7.520000
  Q      7.960000    4.090000    8.400000
  Q      7.470000    4.310000    7.710000
  Q     14.010000   17.000000    7.740000
  Q     13.220000   17.150000    9.020000
  Q     13.890000   17.250000    8.500000
  Q     10.640000   17.700000    9.400000
  Q     11.650000   18.190000   10.580000
  Q     11.400000   17.780000    9.860000
  Q     14.360000    9.930000    1.910000
  Q     13.750000   10.180000    0.470000
  Q     13.780000    9.870000    1.270000
  Q     15.290000    4.700000   18.110000
  Q     14.600000    5.720000   17.170000
  Q     14.640000    5.170000   17.800000
  Q      5.420000    6.120000    6.360000
  Q      5.430000    5.020000    5.300000
  Q      5.090000    5.470000    5.900000
  Q      3.210000   12.610000   18.050000
  Q      2.690000   13.670000   19.110000
  Q      2.870000   12.890000   18.790000
  Q     15.790000    5.080000   11.560000
  Q     15.330000    6.340000   10.890000
  Q     15.530000    5.870000   11.530000
  Q      4.090000    9.170000    1.600000
  Q      4.960000   10.340000    2.180000
  Q      4.430000    9.670000    2.210000
  Q     18.150000   15.380000    5.230000
  Q     17.500000   14.950000    3.870000
  Q     18.060000   14.920000    4.510000
  Q      1.340000    6.040000    7.790000
  Q      0.030000    6.800000    7.540000
  Q      0.640000    6.480000    8.040000
  Q     18.700000   12.920000   18.200000
  Q     17.380000   13.860000   18.610000
  Q     17.860000   13.240000   18.210000
  Q      9.550000    4.370000   10.610000
  Q     10.400000    4.040000    9.390000
  Q      9.680000    4.300000    9.800000
  Q     17.590000   11.640000    4.640000
  Q     17.710000   13.100000    4.960000
  Q     17.600000   12.310000    5.170000
  Q      3.960000   10.830000    4.500000
  Q      5.430000   11.030000    4.870000
  Q      4.600000   11.190000    4.900000
  Q      8.420000    0.920000    8.210000
  Q      7.570000    0.410000    6.990000
  Q      7.750000    0.870000    7.720000
  Q     12.150000   15.790000   13.000000
  Q     11.000000   16.020000   14.110000
  Q     11.810000   15.950000   13.820000
  Q     13.430000   15.660000   11.210000
  Q     11.990000   15.900000   10.730000
  Q     12.580000   15.630000   11.250000
  Q     17.420000   19.490000    9.780000
  Q     16.700000   18.830000   11.050000
  Q     17.210000   19.410000   10.600000
  Q      6.090000   10.050000    7.400000
  Q      4.690000   10.290000    6.660000
  Q      5.230000   10.130000    7.340000
  Q     15.700000    4.320000    4.460000
  Q     16.910000    5.260000    4.590000
  Q     16.260000    4.790000    4.860000
  Q     10.750000   19.100000   12.370000
  Q     12.140000   19.850000   12.310000
  Q     11.400000   19.510000   12.010000
  Q      9.430000    3.850000    4.690000
  Q      8.490000    3.540000    5.980000
  Q      9.120000    3.400000    5.390000
  Q     10.840000   -0.010000    8.180000
  Q     10.860000    1.410000    8.260000
  Q     10.570000    0.710000    8.480000
  Q     17.600000    9.020000    5.530000
  Q     17.590000    8.110000    4.350000
  Q     17.610000    8.840000    4.750000
  Q      4.010000    9.720000   13.400000
  Q      3.600000    8.740000   12.300000
  Q      3.910000    9.470000   12.570000
  Q     11.210000   10.530000    1.740000
  Q     10.820000   10.980000    3.230000
  Q     10.780000   10.500000    2.500000
  Q      8.610000    3.770000   16.290000
  Q      8.060000    4.360000   15.060000
  Q      8.480000    4.380000   15.750000
  Q      5.170000   17.600000   14.760000
  Q      4.490000   17.880000   13.520000
  Q      4.700000   17.390000   14.130000
  Q      9.130000   19.640000   13.710000
  Q      8.200000   18.890000   12.640000
  Q      8.840000   18.980000   13.230000
  Q     13.080000    7.190000   18.890000
  Q     12.910000    7.610000   20.430000
  Q     12.840000    7.660000   19.550000
  Q      0.900000   12.810000    5.760000
  Q     -0.090000   12.410000    4.570000
  Q      0.250000   12.900000    5.180000
  Q      5.050000    1.910000    9.010000
  Q      5.760000    2.970000    8.110000
  Q      5.100000    2.650000    8.560000
  Q     17.480000    6.470000   14.320000
  Q     16.460000    6.430000   13.250000
  Q     16.730000    6.630000   14.000000
  Q      6.240000    6.970000    8.510000
  Q      7.060000    7.650000    7.250000
  Q      6.640000    7.030000    7.730000
  Q     18.120000   20.020000   13.710000
  Q     17.820000   18.780000   14.660000
  Q     17.640000   19.460000   14.130000
  Q     12.360000    8.450000    3.010000
  Q     12.190000    7.030000    3.720000
  Q     12.620000    7.740000    3.430000
  Q     14.950000   11.590000   21.510000
  Q     14.090000   11.870000   20.270000
  Q     14.290000   11.460000   20.960000
  Q     15.850000   16.950000   17.630000
  Q     15.300000   15.710000   16.840000
  Q     15.320000   16.520000   17.090000
  Q     19.990000   15.000000    7.010000
  Q     20.940000   13.960000    6.310000
  Q     20.430000   14.290000    6.960000
  Q     19.110000   12.020000   13.280000
  Q     18.760000   12.060000   11.800000
  Q     19.170000   12.340000   12.510000
  Q     15.590000    9.980000    8.450000
  Q     15.060000    9.240000    7.210000
  Q     15.520000    9.810000    7.630000
  Q     18.420000   14.790000    9.330000
  Q     17.040000   14.700000    8.870000
  Q     17.730000   15.100000    8.980000
  Q      5.130000   16.660000   10.200000
  Q      4.260000   17.820000   10.640000
  Q      4.910000   17.270000   10.680000
  Q     19.290000   17.270000   12.710000
  Q     20.200000   18.420000   12.520000
  Q     19.830000   17.850000   12.980000
  Q      9.010000   13.200000    1.250000
  Q      8.760000   14.210000    0.130000
  Q      9.200000   13.630000    0.570000
  Q     18.240000    9.610000   18.160000
  Q     19.310000   10.240000   17.130000
  Q     18.700000    9.700000   17.390000
  Q     20.550000   11.320000   18.240000
  Q     21.200000   11.870000   16.930000
  Q     20.580000   11.750000   17.520000
  Q      2.680000   12.720000    8.230000
  Q      2.270000   11.330000    7.740000
  Q      2.480000   12.130000    7.660000
  Q     11.950000   17.500000   17.440000
  Q     13.190000   16.690000   17.190000
  Q     12.460000   16.860000   17.530000
  Q     15.140000   19.760000    5.490000
  Q     14.690000   19.230000    6.930000
  Q     15.230000   19.400000    6.250000
  Q      7.780000   11.780000    4.180000
  Q      8.100000   11.310000    5.530000
  Q      7.650000   11.280000    4.860000
  Q      8.430000   15.570000   13.930000
  Q      8.990000   17.010000   13.990000
  Q      8.980000   16.180000   14.200000
  Q      3.960000    9.040000    8.660000
  Q      3.620000    8.090000    9.710000
  Q      3.430000    8.570000    9.090000
  Q     14.280000   18.480000   17.400000
  Q     14.610000   19.930000   16.850000
  Q     14.120000   19.280000   17.130000
  Q     11.620000    5.740000   16.160000
  Q     12.830000    4.860000   16.460000
  Q     12.010000    5.000000   16.320000
  Q     13.310000    3.460000   11.070000
  Q     13.750000    4.930000   10.730000
  Q     13.650000    4.090000   10.590000
  Q      2.690000   10.290000   11.580000
  Q      2.060000    9.910000   10.230000
  Q      2.110000   10.330000   10.950000
  Q     14.260000   13.200000   18.190000
  Q     12.790000   13.440000   18.440000
  Q     13.520000   13.020000   18.520000
  Q      3.820000    8.260000    5.240000
  Q      4.370000    8.640000    3.830000
  Q      4.380000    8.280000    4.610000
  Q     15.480000    8.350000   16.810000
  Q     16.880000    9.050000   17.230000
  Q     16.020000    8.960000   17.100000
  Q     15.180000   16.340000   10.070000
  Q     15.700000   16.330000   11.540000
  Q     15.380000   15.990000   10.790000
  Q      1.430000    5.910000   13.610000
  Q      2.710000    5.180000   14.100000
  Q      2.190000    5.840000   13.950000
  Q     19.070000    5.960000    9.240000
  Q     19.440000    4.820000    8.270000
  Q     19.030000    5.160000    8.940000
  Q      6.810000    7.990000   16.000000
  Q      8.300000    8.190000   16.170000
  Q      7.540000    8.410000   15.940000
  Q     15.490000    5.240000    6.630000
  Q     14.680000    6.460000    6.940000
  Q     14.930000    5.690000    7.080000
  Q     18.650000    9.050000   20.420000
  Q     17.150000    9.140000   20.010000
  Q     17.980000    9.360000   20.030000
  Q      3.630000   10.860000   15.740000
  Q      2.350000   10.800000   15.000000
  Q      3.090000   10.500000   15.230000
  Q     10.020000   10.570000   17.910000
  Q      8.560000   10.730000   18.410000
  Q      9.340000   10.360000   18.350000
  Q     15.770000   15.300000   19.930000
  Q     16.910000   14.900000   20.950000
  Q     16.600000   15.150000   20.180000
  Q      9.400000    6.210000   15.890000
  Q     10.360000    7.560000   15.720000
  Q      9.820000    6.990000   16.110000
  Q     13.010000   18.810000   15.540000
  Q     12.420000   17.700000   14.660000
  Q     12.440000   18.490000   15.010000
  Q     18.580000    8.130000   10.230000
  Q     19.720000    8.470000    9.280000
  Q     19.230000    7.950000    9.710000
  Q     14.850000    7.120000   15.050000
  Q     13.440000    7.350000   15.410000
  Q     14.160000    7.030000   15.530000
  Q     10.040000   17.480000    3.330000
  Q      8.900000   18.290000    3.780000
  Q      9.710000   18.110000    3.730000
  Q     14.070000   20.410000   13.660000
  Q     14.370000   21.040000   12.260000
  Q     13.900000   20.710000   12.920000
  Q     11.340000    7.760000    0.510000
  Q     12.880000    8.050000    0.820000
  Q     12.200000    7.610000    0.540000
  Q     13.580000    4.430000    5.910000
  Q     12.410000    4.120000    5.060000
  Q     12.840000    4.110000    5.760000
  Q      3.710000    4.940000    7.080000
  Q      3.250000    3.930000    8.180000
  Q      3.140000    4.540000    7.590000
  Q     17.720000   15.790000   12.060000
  Q     17.700000   16.650000   10.830000
  Q     17.990000   16.400000   11.590000
  Q     19.770000   12.640000    7.590000
  Q     18.970000   11.440000    7.030000
  Q     19.340000   11.910000    7.630000
  Q      2.770000   16.600000   14.310000
  Q      1.400000   17.400000   14.890000
  Q      1.910000   16.860000   14.410000
  Q      5.110000    7.880000   19.170000
  Q      3.760000    7.890000   18.230000
  Q      4.280000    8.040000   18.910000
  Q     18.910000    6.830000   17.990000
  Q     20.000000    7.860000   17.380000
  Q     19.700000    7.120000   17.650000
  Q     22.370000   10.400000   12.450000
  Q     20.970000   11.080000   12.780000
  Q     21.660000   10.610000   12.880000
  Q      7.520000   13.430000   16.810000
  Q      7.760000   13.660000   18.380000
  Q      7.950000   13.600000   17.530000
  Q      9.600000   18.060000   16.980000
  Q     10.650000   19.010000   16.370000
  Q     10.200000   18.680000   16.970000
  Q     10.680000   15.280000    2.730000
  Q      9.550000   15.230000    3.830000
  Q     10.330000   15.390000    3.500000
  Q     15.350000   11.170000    4.080000
  Q     16.250000    9.960000    4.080000
  Q     15.890000   10.650000    3.730000
  Q     20.100000    6.970000   12.860000
  Q     20.730000    8.230000   13.320000
  Q     20.320000    7.760000   12.760000
  Q     15.470000    6.960000   20.430000
  Q     14.890000    8.190000   19.750000
  Q     15.480000    7.740000   20.160000
  Q     15.850000    4.160000    7.910000
  Q     17.230000    4.020000    8.200000
  Q     16.520000    3.720000    7.960000
  Q     18.290000   17.250000    6.120000
  Q     18.240000   16.240000    7.390000
  Q     18.490000   16.560000    6.610000
  Q      5.960000    7.070000   10.960000
  Q      5.020000    6.220000   10.260000
  Q      5.560000    6.810000   10.300000
  Q      9.430000    9.310000   20.190000
  Q     10.610000    9.890000   20.920000
  Q     10.000000    9.330000   20.800000
  Q      7.430000   11.760000    1.840000
  Q      8.840000   11.220000    2.150000
  Q      8.200000   11.770000    2.220000
  Q     17.720000   18.070000   18.830000
  Q     16.620000   16.930000   19.300000
  Q     16.940000   17.670000   18.920000
  Q      6.490000   18.470000   11.270000
  Q      7.120000   19.710000   10.570000
  Q      6.840000   19.260000   11.230000
  Q      8.660000    4.850000   12.610000
  Q      9.920000    4.050000   13.140000
  Q      9.130000    4.180000   12.820000
  Q     19.070000   16.480000   16.010000
  Q     20.510000   16.920000   16.190000
  Q     19.870000   16.370000   16.210000
  Q      3.820000   13.410000    3.440000
  Q      3.860000   13.690000    1.820000
  Q      3.600000   13.320000    2.590000
  Q      6.090000    6.030000   16.780000
  Q      4.800000    6.560000   16.080000
  Q      5.660000    6.470000   16.200000
  Q      8.840000   19.880000    8.370000
  Q      7.360000   19.400000    8.070000
  Q      8.030000   19.690000    8.540000
  Q     11.310000   20.670000   14.370000
  Q     10.450000   21.490000   15.220000
  Q     10.590000   20.910000   14.670000
  Q      2.140000    7.060000   17.000000
  Q      2.610000    7.980000   15.860000
  Q      2.610000    7.670000   16.650000
  Q     12.360000   11.510000   21.360000
  Q     11.100000   12.380000   21.650000
  Q     11.560000   11.670000   21.620000
  Q     11.940000    5.710000   12.990000
  Q     10.970000    6.750000   12.430000
  Q     11.740000    6.450000   12.620000
  Q     18.630000    8.700000   12.230000
  Q     18.050000    9.760000   11.330000
  Q     18.020000    9.040000   11.760000
  Q     15.680000   15.290000    6.490000
  Q     15.540000   16.470000    5.580000
  Q     15.260000   15.950000    6.150000
  Q      4.220000    3.170000   11.710000
  Q      4.830000    1.790000   12.260000
  Q      4.520000    2.600000   12.300000
  Q      5.330000    9.780000   18.140000
  Q      6.750000    9.380000   17.770000
  Q      6.140000    9.930000   17.950000
  Q      6.720000   17.650000   16.440000
  Q      6.430000   19.130000   16.360000
  Q      6.270000   18.330000   16.240000
  Q     15.450000   13.220000    8.170000
  Q     16.440000   12.840000    6.980000
  Q     15.880000   13.330000    7.420000
  Q      0.210000   11.400000   14.670000
  Q      0.820000   12.610000   15.540000
  Q      0.600000   11.770000   15.350000
  Q      6.220000    7.910000    4.760000
  Q      7.410000    8.860000    4.930000
  Q      7.040000    8.120000    4.830000
  Q      6.510000    6.550000   13.290000
  Q      7.060000    7.990000   13.540000
  Q      6.860000    7.320000   13.070000
  Q     14.590000   18.530000   12.740000
  Q     16.140000   18.600000   12.970000
  Q     15.400000   18.340000   12.620000
  Q     12.590000   10.940000   18.310000
  Q     12.120000    9.350000   18.180000
  Q     12.330000   10.170000   17.940000
  Q     20.240000    8.950000   15.440000
  Q     21.540000    9.580000   15.990000
  Q     21.060000    8.980000   15.670000
  Q     14.530000   12.870000    5.950000
  Q     14.520000   11.450000    6.530000
  Q     14.290000   12.050000    5.980000
  Q      3.360000    6.480000   12.140000
  Q      2.300000    7.280000   11.310000
  Q      3.060000    7.090000   11.630000
  Q      9.740000    6.990000   18.180000
  Q     10.170000    7.430000   19.610000
  Q      9.700000    7.000000   19.030000
  Q     -0.060000   14.870000    9.800000
  Q      0.980000   15.830000   10.310000
  Q      0.680000   15.240000    9.780000
  Q      4.930000   12.940000   16.460000
  Q      5.190000   11.690000   17.220000
  Q      4.700000   12.250000   16.860000
  Q      8.880000    6.040000    6.980000
  Q     10.020000    5.090000    7.040000
  Q      9.670000    5.830000    6.860000
  Q      9.630000    8.970000    2.640000
  Q      8.580000    8.090000    3.310000
  Q      9.030000    8.380000    2.660000
  Q     13.370000   15.870000    6.000000
  Q     12.130000   15.720000    4.990000
  Q     12.530000   15.990000    5.710000
  Q     12.540000   18.170000    5.360000
  Q     11.620000   19.200000    4.640000
  Q     12.060000   18.890000    5.300000
  Q      9.010000   14.660000   19.660000
  Q      8.770000   15.980000   20.300000
  Q      8.590000   15.170000   20.160000
  Q     14.320000    6.860000    2.430000
  Q     15.310000    7.620000    1.410000
  Q     14.990000    6.950000    1.870000
  Q      7.120000    6.010000    4.180000
  Q      7.240000    4.770000    3.320000
  Q      7.040000    5.210000    4.010000
  Q     10.520000   14.200000   17.520000
  Q     11.320000   15.400000   18.010000
  Q     10.910000   14.690000   18.110000
  Q      6.650000   14.490000    4.710000
  Q      8.160000   14.350000    5.270000
  Q      7.520000   14.600000    4.760000
  Q     19.790000    5.990000   15.480000
  Q     18.720000    5.020000   14.770000
  Q     19.370000    5.590000   14.820000
  Q      0.460000    7.510000    9.800000
  Q     -0.360000    7.740000   11.030000
  Q      0.310000    7.850000   10.560000
  Q      9.310000    3.730000   18.220000
  Q     10.520000    3.750000   17.270000
  Q      9.930000    3.400000   17.750000
  Q      5.080000   16.250000    6.970000
  Q      3.950000   16.660000    6.000000
  Q      4.760000   16.480000    6.240000
  Q     11.960000    3.560000    7.640000
  Q     12.380000    3.620000    9.110000
  Q     11.860000    3.480000    8.460000

----------------------------
CARTESIAN COORDINATES (A.U.)
----------------------------
  NO LB      ZA    FRAG     MASS         X           Y           Z
   0 C     6.0000    0    12.011   18.103576   18.878364   20.220070
   1 H     1.0000    0     1.008   18.009090   18.368138   22.298768
   2 H     1.0000    0     1.008   18.009090   17.196508   19.142926
   3 C     6.0000    0    12.011   20.541323   20.276761   19.294104
   4 H     1.0000    0     1.008   22.053104   18.991748   19.785433
   5 H     1.0000    0     1.008   20.673604   20.371248   17.196508
   6 C     6.0000    0    12.011   21.127138   22.865686   20.446837
   7 H     1.0000    0     1.008   19.388590   23.791652   21.183830
   8 H     1.0000    0     1.008   22.185385   23.999522   19.086234
   9 C     6.0000    0    12.011   22.808994   22.355460   22.714508
  10 H     1.0000    0     1.008   21.920823   21.051549   24.075111
  11 H     1.0000    0     1.008   23.149145   24.056214   23.942830
  12 O     8.0000    0    15.999   25.360125   21.523981   22.260974
  13 H     1.0000    0     1.008   26.304988   21.637364   23.848344
  14 O     8.0000    0    15.999   16.005980   20.182275   19.407487
  15 H     1.0000    0     1.008   14.947734   20.541323   20.749193
  16 O     8.0000    0    15.999   19.615357   18.557111   12.453295
  17 H     1.0000    0     1.008   20.768090   19.709844   11.659610
  18 H     1.0000    0     1.008   20.957063   17.820117   13.398158
  19 O     8.0000    0    15.999   12.925727   23.130248   25.322330
  20 H     1.0000    0     1.008   12.169836   22.109796   23.980625
  21 H     1.0000    0     1.008   12.150939   24.736515   24.944385
  22 O     8.0000    0    15.999   14.796556   24.566440   16.516206
  23 H     1.0000    0     1.008   15.817008   23.281426   17.479967
  24 H     1.0000    0     1.008   13.190288   23.905036   16.176056
  25 O     8.0000    0    15.999   15.817008   28.100228   20.579118
  26 H     1.0000    0     1.008   15.193398   26.682933   19.445282
  27 H     1.0000    0     1.008   16.194953   29.423036   19.275207
  28 O     8.0000    0    15.999   28.478173   22.733405   25.908145
  29 H     1.0000    0     1.008   29.271858   21.731851   27.098673
  30 H     1.0000    0     1.008   27.098673   23.300323   26.796317
  31 O     8.0000    0    15.999   22.449946   15.042220   27.892358
  32 H     1.0000    0     1.008   22.015309   16.818563   27.835666
  33 H     1.0000    0     1.008   22.884583   14.550891   26.248296
  34 O     8.0000    0    15.999   17.933501   25.719173   12.491090
  35 H     1.0000    0     1.008   18.254754   27.552207   12.604473
  36 H     1.0000    0     1.008   16.497309   25.435714   13.700514
  37 O     8.0000    0    15.999   28.515967   24.831001   18.972850
  38 H     1.0000    0     1.008   27.590002   23.734960   20.106686
  39 H     1.0000    0     1.008   27.930152   26.512858   19.501974
  40 O     8.0000    0    15.999   27.854563   26.871906   30.897022
  41 H     1.0000    0     1.008   26.361680   26.361680   30.027748
  42 H     1.0000    0     1.008   28.818324   25.360125   30.424591
  43 O     8.0000    0    15.999   32.711159   27.117570   25.832556
  44 H     1.0000    0     1.008   31.237173   26.116015   25.738070
  45 H     1.0000    0     1.008   34.015070   25.794762   25.643584
  46 O     8.0000    0    15.999   12.547782   28.572659   25.001077
  47 H     1.0000    0     1.008   11.092692   29.706495   25.114460
  48 H     1.0000    0     1.008   13.360364   28.780529   23.451501
  49 O     8.0000    0    15.999   35.300084   21.694056   28.610454
  50 H     1.0000    0     1.008   36.074872   23.016864   29.612009
  51 H     1.0000    0     1.008   33.618228   21.939720   29.290755
  52 O     8.0000    0    15.999   11.092692   21.051549   21.164933
  53 H     1.0000    0     1.008    9.996651   19.634255   21.467289
  54 H     1.0000    0     1.008   11.262768   21.259419   19.369693
  55 O     8.0000    0    15.999   10.998206   29.498625   16.081569
  56 H     1.0000    0     1.008   12.736754   30.046646   16.043775
  57 H     1.0000    0     1.008   10.979309   27.665591   16.705179
  58 O     8.0000    0    15.999   24.037316   24.963282   27.665591
  59 H     1.0000    0     1.008   22.695611   23.716063   27.892358
  60 H     1.0000    0     1.008   23.281426   26.475063   26.890803
  61 O     8.0000    0    15.999   28.893913   19.029542   19.766535
  62 H     1.0000    0     1.008   30.141132   18.519316   20.994857
  63 H     1.0000    0     1.008   27.608899   19.861022   20.786987
  64 O     8.0000    0    15.999   26.267193   15.401268   12.302117
  65 H     1.0000    0     1.008   24.812104   15.476857   13.435953
  66 H     1.0000    0     1.008   25.605789   15.911494   10.676953
  67 O     8.0000    0    15.999   22.053104   14.796556   15.363473
  68 H     1.0000    0     1.008   23.186940   14.191843   16.724076
  69 H     1.0000    0     1.008   20.957063   13.473747   15.004426
  70 O     8.0000    0    15.999   11.168281   27.212056   29.989954
  71 H     1.0000    0     1.008   10.847028   28.761632   30.878125
  72 H     1.0000    0     1.008   11.621816   27.646693   28.308097
  73 O     8.0000    0    15.999   21.845234   20.333453   28.515967
  74 H     1.0000    0     1.008   22.657816   20.068892   30.141132
  75 H     1.0000    0     1.008   19.993302   20.598015   28.478173
  76 O     8.0000    0    15.999   16.705179   20.409042   28.251406
  77 H     1.0000    0     1.008   15.628035   21.259419   26.985289
  78 H     1.0000    0     1.008   15.457960   19.483076   29.139577
  79 O     8.0000    0    15.999    9.902165   24.037316   16.138261
  80 H     1.0000    0     1.008    8.409281   24.150700   17.290994
  81 H     1.0000    0     1.008    9.467528   22.733405   14.985528
  82 O     8.0000    0    15.999   21.618467   22.544433    9.788781
  83 H     1.0000    0     1.008   20.692501   23.923933   10.525775
  84 H     1.0000    0     1.008   23.338118   23.073556   10.072240
  85 O     8.0000    0    15.999   16.270542   32.503290   17.083124
  86 H     1.0000    0     1.008   16.119364   34.336324   17.328789
  87 H     1.0000    0     1.008   16.950843   32.200933   15.363473
  88 O     8.0000    0    15.999   17.026432   12.623371   21.883029
  89 H     1.0000    0     1.008   15.363473   13.228083   22.412152
  90 H     1.0000    0     1.008   16.818563   12.094247   20.125583
  91 O     8.0000    0    15.999   30.443488   22.355460   30.708050
  92 H     1.0000    0     1.008   31.463940   22.922378   32.163139
  93 H     1.0000    0     1.008   29.933262   20.843679   31.369454
  94 O     8.0000    0    15.999   25.511303   14.456405   19.690946
  95 H     1.0000    0     1.008   24.604234   14.399713   21.259419
  96 H     1.0000    0     1.008   26.437269   16.043775   19.539768
  97 O     8.0000    0    15.999   14.626480   17.952398   14.324124
  98 H     1.0000    0     1.008   14.909939   18.746083   15.949289
  99 H     1.0000    0     1.008   16.289439   18.084679   13.549336
 100 Q     0.6645    0     0.000   12.396603   36.774071   11.300562
 101 Q     0.6645    0     0.000   10.979309   34.279632   11.810788
 102 Q    -1.3290    0     0.000   11.678508   35.659132   12.207631
 103 Q     0.6645    0     0.000    8.333692    7.880158   18.462624
 104 Q     0.6645    0     0.000    5.725870    8.976199   19.464179
 105 Q    -1.3290    0     0.000    7.294343    8.541562   19.558665
 106 Q     0.6645    0     0.000   31.142687   32.011961   29.517522
 107 Q     0.6645    0     0.000   32.881235   30.802536   27.514413
 108 Q    -1.3290    0     0.000   32.559981   31.652913   28.818324
 109 Q     0.6645    0     0.000    2.796795   16.043775   13.832795
 110 Q     0.6645    0     0.000    2.570028   16.686282   10.752542
 111 Q    -1.3290    0     0.000    3.307021   16.383926   12.264323
 112 Q     0.6645    0     0.000   25.303433   31.274968   36.528406
 113 Q     0.6645    0     0.000   26.739625   33.126899   38.418132
 114 Q    -1.3290    0     0.000   26.304988   31.747399   37.794523
 115 Q     0.6645    0     0.000   21.032652   -0.680301   21.769645
 116 Q     0.6645    0     0.000   20.314556    1.303911   19.842124
 117 Q    -1.3290    0     0.000   20.579118    0.755890   21.297214
 118 Q     0.6645    0     0.000   10.695850    7.917953   25.265638
 119 Q     0.6645    0     0.000   11.187179    9.580911   27.457721
 120 Q    -1.3290    0     0.000   11.376151    9.108480   26.021529
 121 Q     0.6645    0     0.000   15.609138   30.065543   32.465495
 122 Q     0.6645    0     0.000   16.308337   30.802536   29.895467
 123 Q    -1.3290    0     0.000   15.987083   31.123789   31.388351
 124 Q     0.6645    0     0.000   41.025954   18.462624   18.594905
 125 Q     0.6645    0     0.000   40.515728   20.768090   16.780768
 126 Q    -1.3290    0     0.000   40.477934   19.218515   17.328789
 127 Q     0.6645    0     0.000   19.464179   10.771439    6.330583
 128 Q     0.6645    0     0.000   19.955508   10.676953    9.429733
 129 Q    -1.3290    0     0.000   20.295659   10.469083    7.804569
 130 Q     0.6645    0     0.000   18.065782   32.389906   10.979309
 131 Q     0.6645    0     0.000   20.068892   30.462385   12.132042
 132 Q    -1.3290    0     0.000   18.613802   31.142687   11.961966
 133 Q     0.6645    0     0.000   37.662242   18.141371   14.437508
 134 Q     0.6645    0     0.000   35.186701   16.629590   14.683172
 135 Q    -1.3290    0     0.000   36.377228   17.328789   13.946179
 136 Q     0.6645    0     0.000   13.870590   31.634015    8.806124
 137 Q     0.6645    0     0.000   11.999761   33.221385    7.615596
 138 Q    -1.3290    0     0.000   13.454850   32.805646    7.842363
 139 Q     0.6645    0     0.000    3.722760   25.756967   19.350796
 140 Q     0.6645    0     0.000    5.121158   23.111351   20.049994
 141 Q    -1.3290    0     0.000    4.932185   24.642029   19.501974
 142 Q     0.6645    0     0.000   16.176056    4.232987   24.660926
 143 Q     0.6645    0     0.000   17.574453    1.776343   24.150700
 144 Q    -1.3290    0     0.000   16.346131    2.645617   24.793207
 145 Q     0.6645    0     0.000   26.002632   39.362995   18.708289
 146 Q     0.6645    0     0.000   25.473508   36.868557   17.272097
 147 Q    -1.3290    0     0.000   25.303433   38.399235   17.631145
 148 Q     0.6645    0     0.000   23.753858    2.702308   22.657816
 149 Q     0.6645    0     0.000   26.361680    3.703863   24.112905
 150 Q    -1.3290    0     0.000   25.019974    3.703863   23.130248
 151 Q     0.6645    0     0.000    8.541562   27.627796   10.563569
 152 Q     0.6645    0     0.000    8.806124   24.679823    9.883268
 153 Q    -1.3290    0     0.000    9.032891   26.304988    9.732090
 154 Q     0.6645    0     0.000   29.063988   31.274968    5.971535
 155 Q     0.6645    0     0.000   31.463940   32.673365    7.086473
 156 Q    -1.3290    0     0.000   30.386796   31.482837    6.821911
 157 Q     0.6645    0     0.000   30.821433    5.310130   18.216960
 158 Q     0.6645    0     0.000   28.723837    5.952637   20.031097
 159 Q    -1.3290    0     0.000   30.178926    5.461309   19.634255
 160 Q     0.6645    0     0.000   13.246980   14.853247   38.418132
 161 Q     0.6645    0     0.000   14.531994   13.246980   36.244947
 162 Q    -1.3290    0     0.000   13.341467   14.040665   36.981940
 163 Q     0.6645    0     0.000   37.548858   25.945940   21.316111
 164 Q     0.6645    0     0.000   37.246502   28.667145   21.372803
 165 Q    -1.3290    0     0.000   37.700036   27.325440   20.711398
 166 Q     0.6645    0     0.000   22.714508    7.823466   27.438823
 167 Q     0.6645    0     0.000   23.375912    6.519555   24.831001
 168 Q    -1.3290    0     0.000   22.525536    7.464418   25.851454
 169 Q     0.6645    0     0.000   34.600886   21.788542   17.971296
 170 Q     0.6645    0     0.000   31.898577   22.393255   19.331898
 171 Q    -1.3290    0     0.000   33.561536   22.072001   19.199618
 172 Q     0.6645    0     0.000   32.541084    9.921062   34.695372
 173 Q     0.6645    0     0.000   31.596221   12.604473   35.791413
 174 Q    -1.3290    0     0.000   32.541084   11.527329   34.959933
 175 Q     0.6645    0     0.000   20.994857   36.169358   16.119364
 176 Q     0.6645    0     0.000   20.654707   36.112666   13.228083
 177 Q    -1.3290    0     0.000   20.201172   36.452817   14.777658
 178 Q     0.6645    0     0.000   13.435953    9.562014   14.210741
 179 Q     0.6645    0     0.000   15.042220    7.728980   15.873700
 180 Q    -1.3290    0     0.000   14.116254    8.144720   14.569788
 181 Q     0.6645    0     0.000   26.475063   32.125344   14.626480
 182 Q     0.6645    0     0.000   24.982179   32.408803   17.045330
 183 Q    -1.3290    0     0.000   26.248296   32.597776   16.062672
 184 Q     0.6645    0     0.000   20.106686   33.448153   17.763426
 185 Q     0.6645    0     0.000   22.015309   34.374118   19.993302
 186 Q    -1.3290    0     0.000   21.542878   33.599331   18.632700
 187 Q     0.6645    0     0.000   27.136467   18.764981    3.609377
 188 Q     0.6645    0     0.000   25.983734   19.237412    0.888171
 189 Q    -1.3290    0     0.000   26.040426   18.651597    2.399952
 190 Q     0.6645    0     0.000   28.893913    8.881713   34.222940
 191 Q     0.6645    0     0.000   27.590002   10.809233   32.446598
 192 Q    -1.3290    0     0.000   27.665591    9.769884   33.637125
 193 Q     0.6645    0     0.000   10.242316   11.565124   12.018658
 194 Q     0.6645    0     0.000   10.261213    9.486425   10.015549
 195 Q    -1.3290    0     0.000    9.618706   10.336802   11.149384
 196 Q     0.6645    0     0.000    6.066021   23.829447   34.109557
 197 Q     0.6645    0     0.000    5.083363   25.832556   36.112666
 198 Q    -1.3290    0     0.000    5.423514   24.358570   35.507954
 199 Q     0.6645    0     0.000   29.838776    9.599809   21.845234
 200 Q     0.6645    0     0.000   28.969502   11.980864   20.579118
 201 Q    -1.3290    0     0.000   29.347447   11.092692   21.788542
 202 Q     0.6645    0     0.000    7.728980   17.328789    3.023562
 203 Q     0.6645    0     0.000    9.373042   19.539768    4.119603
 204 Q    -1.3290    0     0.000    8.371487   18.273652    4.176295
 205 Q     0.6645    0     0.000   34.298529   29.063988    9.883268
 206 Q     0.6645    0     0.000   33.070207   28.251406    7.313240
 207 Q    -1.3290    0     0.000   34.128454   28.194714    8.522665
 208 Q     0.6645    0     0.000    2.532233   11.413946   14.720967
 209 Q     0.6645    0     0.000    0.056692   12.850138   14.248535
 210 Q    -1.3290    0     0.000    1.209425   12.245425   15.193398
 211 Q     0.6645    0     0.000   35.337879   24.415262   34.393016
 212 Q     0.6645    0     0.000   32.843440   26.191604   35.167803
 213 Q    -1.3290    0     0.000   33.750509   25.019974   34.411913
 214 Q     0.6645    0     0.000   18.046885    8.258103   20.049994
 215 Q     0.6645    0     0.000   19.653152    7.634494   17.744528
 216 Q    -1.3290    0     0.000   18.292549    8.125822   18.519316
 217 Q     0.6645    0     0.000   33.240283   21.996412    8.768329
 218 Q     0.6645    0     0.000   33.467050   24.755412    9.373042
 219 Q    -1.3290    0     0.000   33.259180   23.262529    9.769884
 220 Q     0.6645    0     0.000    7.483315   20.465734    8.503768
 221 Q     0.6645    0     0.000   10.261213   20.843679    9.202966
 222 Q    -1.3290    0     0.000    8.692740   21.146035    9.259658
 223 Q     0.6645    0     0.000   15.911494    1.738548   15.514652
 224 Q     0.6645    0     0.000   14.305227    0.774788   13.209186
 225 Q    -1.3290    0     0.000   14.645378    1.644062   14.588686
 226 Q     0.6645    0     0.000   22.960173   29.838776   24.566440
 227 Q     0.6645    0     0.000   20.786987   30.273413   26.664036
 228 Q    -1.3290    0     0.000   22.317666   30.141132   26.116015
 229 Q     0.6645    0     0.000   25.379022   29.593111   21.183830
 230 Q     0.6645    0     0.000   22.657816   30.046646   20.276761
 231 Q    -1.3290    0     0.000   23.772755   29.536419   21.259419
 232 Q     0.6645    0     0.000   32.919029   36.830762   18.481522
 233 Q     0.6645    0     0.000   31.558426   35.583543   20.881474
 234 Q    -1.3290    0     0.000   32.522187   36.679584   20.031097
 235 Q     0.6645    0     0.000   11.508432   18.991748   13.983973
 236 Q     0.6645    0     0.000    8.862816   19.445282   12.585576
 237 Q    -1.3290    0     0.000    9.883268   19.142926   13.870590
 238 Q     0.6645    0     0.000   29.668700    8.163617    8.428179
 239 Q     0.6645    0     0.000   31.955269    9.939959    8.673843
 240 Q    -1.3290    0     0.000   30.726947    9.051788    9.184069
 241 Q     0.6645    0     0.000   20.314556   36.093769   23.375912
 242 Q     0.6645    0     0.000   22.941275   37.511064   23.262529
 243 Q    -1.3290    0     0.000   21.542878   36.868557   22.695611
 244 Q     0.6645    0     0.000   17.820117    7.275446    8.862816
 245 Q     0.6645    0     0.000   16.043775    6.689631   11.300562
 246 Q    -1.3290    0     0.000   17.234302    6.425069   10.185624
 247 Q     0.6645    0     0.000   20.484631   -0.018897   15.457960
 248 Q     0.6645    0     0.000   20.522426    2.664514   15.609138
 249 Q    -1.3290    0     0.000   19.974405    1.341706   16.024878
 250 Q     0.6645    0     0.000   33.259180   17.045330   10.450186
 251 Q     0.6645    0     0.000   33.240283   15.325679    8.220309
 252 Q    -1.3290    0     0.000   33.278077   16.705179    8.976199
 253 Q     0.6645    0     0.000    7.577802   18.368138   25.322330
[...]
 302   Q   :    0.014700056    0.050120338    0.281725756
 303   Q   :   -0.152963312   -0.184893740   -0.122988688
 304   Q   :    0.150380378    0.137153337   -0.156110155
 305   Q   :    0.225789112   -0.117483373    0.118052763
 306   Q   :   -0.268033872   -0.166632924   -0.035828881
 307   Q   :    0.033418388    0.276853015   -0.075909481
 308   Q   :    0.072424057   -0.235014794   -0.190999255
 309   Q   :   -0.224952691    0.179206279   -0.023731586
 310   Q   :    0.142021828    0.052648957    0.216447445
 311   Q   :   -0.175839663   -0.192561716   -0.102092826
 312   Q   :    0.135523176    0.216510577   -0.192881150
 313   Q   :    0.049407872   -0.022318585    0.302134228
 314   Q   :   -0.080708775   -0.139368660    0.242442973
 315   Q   :   -0.166131952    0.199687356   -0.140052713
 316   Q   :    0.250585971   -0.053184813   -0.110833218
 317   Q   :   -0.130164938   -0.018312169    0.192486277
 318   Q   :    0.205534261    0.176047111   -0.068694155
 319   Q   :   -0.072647412   -0.161123775   -0.142597733
 320   Q   :   -0.000685600   -0.161135704    0.248671312
 321   Q   :    0.206433796    0.021575918   -0.181851622
 322   Q   :   -0.197432168    0.143593170   -0.068911568
 323   Q   :    0.075063751    0.190147550    0.200762768
 324   Q   :   -0.075229917   -0.291097201    0.045617783
 325   Q   :    0.004049331    0.100379890   -0.249384901
 326   Q   :   -0.167629058    0.230283301   -0.038708107
 327   Q   :    0.262266073   -0.048221198   -0.126290860
 328   Q   :   -0.095125727   -0.171947147    0.156403126
 329   Q   :   -0.042200447    0.125661192   -0.271596761
 330   Q   :   -0.170315400   -0.048892691    0.193389047
 331   Q   :    0.212656174   -0.076015029    0.078536682
 332   Q   :    0.050683561    0.167945308   -0.197761618
 333   Q   :    0.188801488    0.025313604    0.259729611
 334   Q   :   -0.234172074   -0.188020094   -0.052790307
 335   Q   :   -0.170546163   -0.180656981   -0.084148569
 336   Q   :   -0.006761588    0.249766642   -0.066362916
 337   Q   :    0.180364507   -0.080691241    0.135137958
 338   Q   :    0.195814632    0.165400342   -0.132463384
 339   Q   :    0.087470056   -0.177131773    0.241169377
 340   Q   :   -0.284744841    0.006792345   -0.109310752
 341   Q   :    0.061550917   -0.255556891    0.080626382
 342   Q   :    0.171358925    0.206378443   -0.098969839
 343   Q   :   -0.232638482    0.055927100    0.029201307
 344   Q   :   -0.109720348    0.247105430   -0.056952188
 345   Q   :    0.282624855   -0.035608353    0.034013408
 346   Q   :   -0.167535974   -0.207239278    0.026028564
 347   Q   :   -0.109893837   -0.177956816    0.152438242
 348   Q   :    0.024605597    0.265944795    0.056782575
 349   Q   :    0.080404371   -0.066465524   -0.217232602
 350   Q   :    0.184680434   -0.006766870    0.182702306
 351   Q   :   -0.004166800   -0.143529728   -0.256317750
 352   Q   :   -0.201900758    0.152282086    0.065028845
 353   Q   :    0.264189692    0.069941040   -0.115709068
 354   Q   :   -0.234068324    0.144349259   -0.036455546
 355   Q   :   -0.024127701   -0.211323509    0.150145102
 356   Q   :   -0.199873042    0.008488566    0.203636138
 357   Q   :   -0.015931656    0.116391114   -0.234971453
 358   Q   :    0.202030269   -0.131283239    0.039766266
 359   Q   :   -0.163011035   -0.201428934   -0.091249794
 360   Q   :    0.255668073    0.020052137    0.048546035
 361   Q   :   -0.098948141    0.172447044    0.053805536
 362   Q   :   -0.073617744    0.134705826   -0.253014559
 363   Q   :    0.092911649    0.103065869    0.209407975
 364   Q   :   -0.000738452   -0.241699841    0.046871040
 365   Q   :   -0.275749415    0.006708280   -0.127769516
 366   Q   :    0.166451813   -0.230929552    0.042503945
 367   Q   :    0.105512706    0.226181972    0.087053267
 368   Q   :    0.020516661    0.252022629    0.078003069
 369   Q   :    0.142468702   -0.102379228   -0.233912503
 370   Q   :   -0.160414304   -0.156866768    0.156955042
 371   Q   :   -0.229973534   -0.138770677    0.026030664
 372   Q   :    0.264515641   -0.081120985    0.089055864
 373   Q   :   -0.035648256    0.229417716   -0.113744144
 374   Q   :    0.178858704   -0.141789645   -0.141252684
 375   Q   :   -0.078302174    0.277923725   -0.062705771
 376   Q   :   -0.109250033   -0.129470590    0.223739141
 377   Q   :    0.237248325   -0.121799137    0.144657479
 378   Q   :   -0.254260975   -0.075063459   -0.006632611
 379   Q   :    0.023352447    0.201556475   -0.124332990
 380   Q   :    0.186352381    0.137123838    0.178162006
 381   Q   :   -0.252972417    0.116606807   -0.086853919
 382   Q   :    0.066005022   -0.257173897   -0.092168021
 383   Q   :    0.233094406    0.089500928   -0.167007211
 384   Q   :   -0.240906074    0.127641457    0.010379656
 385   Q   :    0.009426720   -0.212403017    0.150567102
 386   Q   :   -0.240774500    0.041195053   -0.068179569
 387   Q   :    0.085378830   -0.082190486    0.252317259
 388   Q   :    0.166193597    0.034059907   -0.175326804
 389   Q   :   -0.100319581   -0.189446206   -0.064153703
 390   Q   :    0.152038981    0.170061338   -0.115538344
 391   Q   :   -0.049962472    0.027711693    0.176856381
 392   Q   :    0.205164957    0.097323348    0.168838543
 393   Q   :    0.015339061   -0.239282370   -0.098407196
 394   Q   :   -0.219870056    0.144041609   -0.078965266
 395   Q   :   -0.212132303    0.074137941    0.149445213
 396   Q   :    0.158796764    0.199592031   -0.151445328
 397   Q   :    0.057227749   -0.269635974    0.000211278
 398   Q   :    0.213390688    0.045088930   -0.158291494
 399   Q   :   -0.275158892    0.131226385   -0.057253431
 400   Q   :    0.056152442   -0.173546759    0.210728076
 401   Q   :    0.111795625   -0.239112865   -0.163632174
 402   Q   :   -0.279946151    0.057080403    0.008792942
 403   Q   :    0.174652394    0.193246218    0.145448596
 404   Q   :    0.079218252   -0.120056213    0.285179751
 405   Q   :    0.154104631    0.097331540   -0.199998879
 406   Q   :   -0.227827588    0.031248052   -0.086285778
 407   Q   :   -0.273113873    0.065629093   -0.003775396
 408   Q   :    0.210271754    0.155767011    0.092937706
 409   Q   :    0.062438213   -0.227686771   -0.092036811
 410   Q   :    0.278270747    0.120318107    0.029440602
 411   Q   :   -0.142507014    0.009580811   -0.269033839
 412   Q   :   -0.127589757   -0.134212826    0.227352218
 413   Q   :    0.175981222    0.119060333   -0.136769212
 414   Q   :    0.041381662   -0.196306339    0.207011888
 415   Q   :   -0.224648734    0.074662302   -0.057839776
 416   Q   :   -0.111439503   -0.225366263    0.166194388
 417   Q   :   -0.109500513    0.079896117   -0.242975813
 418   Q   :    0.209628928    0.157552040    0.067584100
 419   Q   :    0.142837812    0.224201561   -0.020168562
 420   Q   :   -0.116243763   -0.152107061   -0.206556031
 421   Q   :   -0.026065850   -0.080925269    0.222395793
 422   Q   :    0.233801105   -0.070781240   -0.021341295
 423   Q   :   -0.151240713    0.172476776    0.154942771
 424   Q   :   -0.090399531   -0.105045182   -0.132577333
 425   Q   :    0.240108024   -0.047435414    0.064138594
 426   Q   :   -0.145734777   -0.058072216   -0.212402337
 427   Q   :   -0.102007445    0.102743527    0.160348351
 428   Q   :   -0.205519218   -0.063182226    0.088026717
 429   Q   :    0.096912450    0.263650633   -0.090180313
 430   Q   :    0.122896987   -0.193930654    0.005608974
 431   Q   :    0.237756686   -0.063599012   -0.159321361
 432   Q   :   -0.237769769    0.165277495   -0.045683197
 433   Q   :    0.002724386   -0.105263290    0.204502151
 434   Q   :   -0.145535321   -0.059684757   -0.228699890
 435   Q   :   -0.065801602    0.018291521    0.262867759
 436   Q   :    0.214345011    0.031819020   -0.035794881
 437   Q   :   -0.180133011   -0.189329214   -0.007445504
 438   Q   :    0.165032143    0.114940852   -0.230538660
 439   Q   :    0.013466627    0.087955423    0.244241736
 440   Q   :    0.110819206   -0.034878946   -0.263850477
 441   Q   :   -0.246010871   -0.052879473    0.091841285
 442   Q   :    0.135598910    0.083649366    0.172799676
 443   Q   :   -0.199689893    0.180504263    0.133698130
 444   Q   :    0.093330601   -0.214066474    0.123289895
 445   Q   :    0.096604630    0.038323738   -0.263304680
 446   Q   :   -0.076159262   -0.285615853    0.052651971
 447   Q   :    0.135241975    0.148216853    0.208071333
 448   Q   :   -0.051978244    0.129603971   -0.265640204
 449   Q   :   -0.012049090   -0.298233840    0.087372066
 450   Q   :   -0.196726948    0.131609411   -0.136712588
 451   Q   :    0.205798441    0.167439670    0.054430253
 452   Q   :   -0.249500425    0.186751874   -0.016402863
 453   Q   :    0.263440265    0.130633199    0.093121977
 454   Q   :   -0.011291717   -0.323884819   -0.094237819
 455   Q   :   -0.075603637    0.220096071   -0.156950299
 456   Q   :   -0.076992903   -0.079934039    0.216133573
 457   Q   :    0.157814139   -0.122236142   -0.062061703
 458   Q   :    0.148345178    0.085030315    0.255211931
 459   Q   :   -0.204899200   -0.233955675   -0.004553072
 460   Q   :    0.058368392    0.150921477   -0.244337269
 461   Q   :   -0.198136114   -0.003771335   -0.214720052
 462   Q   :    0.210842673    0.194914582    0.020947103
 463   Q   :   -0.015402828   -0.196286858    0.200471210
 464   Q   :   -0.252009030   -0.013770419   -0.133106111
 465   Q   :    0.198304276   -0.184754494   -0.036754981
 466   Q   :    0.043708238    0.193350189    0.165879661
 467   Q   :    0.244366502    0.116144245   -0.023370238
 468   Q   :   -0.093557317   -0.208273327    0.097874663
 469   Q   :   -0.144292117    0.109369232   -0.071358978
 470   Q   :   -0.095619781   -0.247916007    0.007014604
 471   Q   :    0.090046300    0.138992589   -0.226634342
 472   Q   :    0.003735706    0.118955101    0.221422463
 473   Q   :   -0.154329432    0.231232776   -0.068717013
 474   Q   :    0.241957248   -0.029860075    0.095900713
 475   Q   :   -0.096028269   -0.196478915   -0.027393372
 476   Q   :   -0.272277134    0.057933613   -0.069782026
 477   Q   :    0.216694379    0.209470858   -0.007563595
 478   Q   :    0.065447387   -0.266938430    0.080844830
 479   Q   :    0.071313154    0.030863792    0.244925411
 480   Q   :    0.090218106    0.117416044   -0.227613919
 481   Q   :   -0.167287860   -0.151060754   -0.022421066
 482   Q   :    0.134117367   -0.158773338    0.200503411
 483   Q   :   -0.262281319    0.010125744   -0.031125719
 484   Q   :    0.122854004    0.140316140   -0.166596146
 485   Q   :    0.252880213    0.053521870   -0.059193292
 486   Q   :   -0.190977173   -0.092156408   -0.144084817
 487   Q   :   -0.069813018    0.061545700    0.202806629
 488   Q   :    0.284200872   -0.072276264   -0.101422737
 489   Q   :   -0.034805827    0.233823016    0.218875130
 490   Q   :   -0.241778818   -0.152454897   -0.115812954
 491   Q   :   -0.165073908   -0.219403557    0.108844780
 492   Q   :   -0.008992962    0.083256520   -0.270481048
 493   Q   :    0.164091101    0.138905761    0.153072319
 494   Q   :    0.249864227   -0.034504097   -0.093649018
 495   Q   :   -0.147751518    0.257862005    0.001972207
 496   Q   :   -0.111469906   -0.214578977    0.095378339
 497   Q   :    0.055329184   -0.227546055    0.120839584
 498   Q   :   -0.251990665    0.096791112   -0.051256476
 499   Q   :    0.198951737    0.128241954   -0.076500372
 500   Q   :    0.204130694   -0.092381495    0.151141906
 501   Q   :    0.022614013    0.249002884   -0.147364304
 502   Q   :   -0.237259444   -0.157321932    0.013659515
 503   Q   :    0.144483544   -0.200636524    0.095146348
 504   Q   :    0.112842305    0.188216435   -0.205225710
 505   Q   :   -0.237334431    0.020806676    0.110728863
 506   Q   :   -0.088684843    0.156958577   -0.180899380
 507   Q   :    0.095862994   -0.260918258   -0.028373223
 508   Q   :   -0.009399918    0.086361112    0.212067264
 509   Q   :   -0.268226209   -0.055960999    0.054454898
 510   Q   :    0.201329441   -0.198437331   -0.058970336
 511   Q   :    0.071830207    0.253123140    0.005413340
 512   Q   :    0.152022417   -0.227727205    0.072002253
 513   Q   :    0.071688943    0.296925063    0.051054605
 514   Q   :   -0.227281942   -0.059979035   -0.113969724
 515   Q   :   -0.125750433   -0.037099644    0.218761790
 516   Q   :    0.164766376   -0.155243404   -0.125108739
 517   Q   :   -0.037047109    0.187651213   -0.090037760
 518   Q   :   -0.123591962   -0.106782559   -0.231277947
 519   Q   :    0.061381353    0.254817749    0.037729350
 520   Q   :    0.055444031   -0.144738822    0.199989287
 521   Q   :   -0.249682857   -0.063312611   -0.024980857
 522   Q   :    0.126485548    0.265235844    0.032962026
 523   Q   :    0.134905720   -0.204064728   -0.003422349
 524   Q   :   -0.100775328   -0.210672462    0.070753931
 525   Q   :    0.066861771    0.226256754    0.164638232
 526   Q   :    0.023681605    0.003525074   -0.221953023
 527   Q   :   -0.282014226    0.073941805    0.052482197
 528   Q   :    0.219938295    0.084201008    0.105565825
 529   Q   :    0.047701790   -0.160549148   -0.155786040
 530   Q   :    0.068373727    0.216311067    0.110519481
 531   Q   :   -0.066567490   -0.241599144    0.069155360
 532   Q   :   -0.000248114    0.018579785   -0.172832049
 533   Q   :   -0.274414136    0.002899802   -0.070974337
 534   Q   :    0.162076322    0.236690244    0.126958076
 535   Q   :    0.119835040   -0.237699779   -0.055872529
 536   Q   :    0.073155709    0.268096776   -0.012507955
 537   Q   :    0.075424149   -0.189280149    0.187463700
 538   Q   :   -0.150304495   -0.075374504   -0.175974949
 539   Q   :    0.092162056   -0.210554992    0.168540982
 540   Q   :   -0.252210957    0.048253322   -0.099302314
 541   Q   :    0.166964604    0.141971881   -0.070068896
 542   Q   :    0.018605944    0.004731479   -0.274694563
 543   Q   :    0.155634581    0.139576368    0.169986570
 544   Q   :   -0.164287419   -0.146765183    0.112682279
 545   Q   :   -0.278072418   -0.129420150    0.027957031
 546   Q   :    0.086844492    0.198538448    0.192873391
 547   Q   :    0.186838515   -0.062480835   -0.225367872
 548   Q   :    0.089107046    0.233618615   -0.134903015
 549   Q   :    0.182494690   -0.188900663    0.120666487
 550   Q   :   -0.268589073   -0.042109866    0.014010927
 551   Q   :   -0.290495053    0.065369495    0.049751504
 552   Q   :    0.112822838   -0.256495409    0.066332568
 553   Q   :    0.170211816    0.192958716   -0.111898926
 554   Q   :    0.197608476    0.194968016    0.008250797
 555   Q   :   -0.142355451   -0.092244445    0.233148660
 556   Q   :   -0.059657979   -0.111849702   -0.244377423
 557   Q   :    0.218040236   -0.036842932    0.070253894
 558   Q   :   -0.110331394   -0.090195593   -0.228015444
 559   Q   :   -0.110367447    0.123757045    0.160394322
 560   Q   :    0.154002408   -0.223519612    0.000959829
 561   Q   :   -0.134691933    0.096033839   -0.230565309
 562   Q   :   -0.006467792    0.137138296    0.219311820
 563   Q   :    0.155139134   -0.175842380   -0.188873007
 564   Q   :    0.077971479    0.285749041    0.035269007
 565   Q   :   -0.240375015   -0.109170528    0.159977491
 566   Q   :   -0.197920732   -0.018199316    0.167549215
 567   Q   :    0.094987481    0.226626869   -0.141652564
 568   Q   :    0.107598111   -0.212899847   -0.030461607
 569   Q   :    0.037237113    0.296006456    0.042453009
 570   Q   :    0.078886438   -0.138767958   -0.253260770
 571   Q   :   -0.109569707   -0.162503695    0.203810777
 572   Q   :   -0.114705384   -0.151806669   -0.202767518
 573   Q   :    0.140233469    0.243211084   -0.047831705
 574   Q   :   -0.030837582   -0.097297611    0.251311943
 575   Q   :   -0.246428917   -0.030734979   -0.009732704
 576   Q   :    0.203925864   -0.079545758    0.168000236
 577   Q   :    0.043825602    0.110658351   -0.165310503
 578   Q   :    0.114039253    0.112754687    0.201175366
 579   Q   :   -0.222021993   -0.179723422   -0.003302595
 580   Q   :    0.112246383    0.063565547   -0.199492815
 581   Q   :    0.031324777   -0.116788694   -0.241833145
 582   Q   :   -0.260823977   -0.058152865    0.166207245
 583   Q   :    0.220174532    0.187960726    0.084140896
 584   Q   :   -0.220930212    0.128488837    0.153239569
 585   Q   :    0.190022788    0.132066648   -0.163904370
 586   Q   :    0.030515602   -0.268772097    0.016764526
 587   Q   :    0.094074899   -0.073011103    0.249068648
 588   Q   :   -0.263619717    0.052979233   -0.067474700
 589   Q   :    0.163963478    0.021870226   -0.188479488
 590   Q   :    0.035448634    0.029288249   -0.279481103
 591   Q   :    0.166310823    0.047422123    0.210880832
 592   Q   :   -0.202536649   -0.083861530    0.063639264

Difference to translation invariance:
           :   -0.0004511748    0.0002736131   -0.0003393965

Difference to rotation invariance:
           :   -0.0118620623   -0.0044486811    0.0123989668

Norm of the cartesian gradient     ...    6.0322574932
RMS gradient                       ...    0.1431391358
MAX gradient                       ...    0.3238848185

-------
TIMINGS
-------

Total SCF gradient time            ...      169.053 sec

One electron gradient       ....      22.484 sec  ( 13.3%)
RI-J Coulomb gradient       ....       9.228 sec  (  5.5%)
COSX gradient               ....     103.243 sec  ( 61.1%)
XC gradient                 ....      14.262 sec  (  8.4%)

Maximum memory used throughout the entire SCFGRAD-calculation: 711.0 MB

                            ***************************************
                            *     ORCA property calculations      *
                            ***************************************

                                    ---------------------
                                    Active property flags
                                    ---------------------
   (+) Dipole Moment


------------------------------------------------------------------------------
                       ORCA ELECTRIC PROPERTIES CALCULATION
------------------------------------------------------------------------------

Dipole Moment Calculation                       ... on
Quadrupole Moment Calculation                   ... off
Polarizability Calculation                      ... off
GBWName                                         ... final081.orca.gbw
Electron density                                ... final081.orca.scfp
The origin for moment calculation is the CENTER OF MASS  = (20.607259, 22.159377 21.310863)

-------------
DIPOLE MOMENT
-------------
                                X             Y             Z
Electronic contribution:     -1.17560      -0.38648       0.34391
Nuclear contribution   :     -0.57766       4.67884      -6.03678
                        -----------------------------------------
Total Dipole Moment    :     -1.75326       4.29236      -5.69288
                        -----------------------------------------
Magnitude (a.u.)       :      7.34215
Magnitude (Debye)      :     18.66225



--------------------
Rotational spectrum 
--------------------
 
Rotational constants in cm-1:     0.002081     0.001445     0.001206 
Rotational constants in MHz :    62.385258    43.328635    36.140222 

 Dipole components along the rotational axes: 
x,y,z [a.u.] :    -4.859739     1.378637    -5.328170 
x,y,z [Debye]:   -12.352475     3.504218   -13.543132 

 

Timings for individual modules:

Sum of individual times         ...      769.025 sec (=  12.817 min)
GTO integral calculation        ...       12.124 sec (=   0.202 min)   1.6 %
SCF iterations                  ...      583.370 sec (=   9.723 min)  75.9 %
SCF Gradient evaluation         ...      173.531 sec (=   2.892 min)  22.6 %
                             ****ORCA TERMINATED NORMALLY****
TOTAL RUN TIME: 0 days 0 hours 12 minutes 56 seconds 194 msec
