
                                 *****************
                                 * O   R   C   A *
                                 *****************

                                            #,                                       
                                            ###                                      
                                            ####                                     
                                            #####                                    
                                            ######                                   
                                           ########,                                 
                                     ,,################,,,,,                         
                               ,,#################################,,                 
                          ,,##########################################,,             
                       ,#########################################, ''#####,          
                    ,#############################################,,   '####,        
                  ,##################################################,,,,####,       
                ,###########''''           ''''###############################       
              ,#####''   ,,,,##########,,,,          '''####'''          '####       
            ,##' ,,,,###########################,,,                        '##       
           ' ,,###''''                  '''############,,,                           
         ,,##''                                '''############,,,,        ,,,,,,###''
      ,#''                                            '''#######################'''  
     '                                                          ''''####''''         
             ,#######,   #######,   ,#######,      ##                                
            ,#'     '#,  ##    ##  ,#'     '#,    #''#        ######   ,####,        
            ##       ##  ##   ,#'  ##            #'  '#       #        #'  '#        
            ##       ##  #######   ##           ,######,      #####,   #    #        
            '#,     ,#'  ##    ##  '#,     ,#' ,#      #,         ##   #,  ,#        
             '#######'   ##     ##  '#######'  #'      '#     #####' # '####'        



                  #######################################################
                  #                        -***-                        #
                  #          Department of theory and spectroscopy      #
                  #    Directorship and core code : Frank Neese         #
                  #        Max Planck Institute fuer Kohlenforschung    #
                  #                Kaiser Wilhelm Platz 1               #
                  #                 D-45470 Muelheim/Ruhr               #
                  #                      Germany                        #
                  #                                                     #
                  #                  All rights reserved                #
                  #                        -***-                        #
                  #######################################################


                         Program Version 5.0.3 -  RELEASE  -


 With contributions from (in alphabetic order):
   Daniel Aravena         : Magnetic Suceptibility
   Michael Atanasov       : Ab Initio Ligand Field Theory (pilot matlab implementation)
   Alexander A. Auer      : GIAO ZORA, VPT2 properties, NMR spectrum
   Ute Becker             : Parallelization
   Giovanni Bistoni       : ED, misc. LED, open-shell LED, HFLD
   Martin Brehm           : Molecular dynamics
   Dmytro Bykov           : SCF Hessian
   Vijay G. Chilkuri      : MRCI spin determinant printing, contributions to CSF-ICE
   Dipayan Datta          : RHF DLPNO-CCSD density
   Achintya Kumar Dutta   : EOM-CC, STEOM-CC
   Dmitry Ganyushin       : Spin-Orbit,Spin-Spin,Magnetic field MRCI
   Miquel Garcia          : C-PCM and meta-GGA Hessian, CC/C-PCM, Gaussian charge scheme
   Yang Guo               : DLPNO-NEVPT2, F12-NEVPT2, CIM, IAO-localization
   Andreas Hansen         : Spin unrestricted coupled pair/coupled cluster methods
   Benjamin Helmich-Paris : MC-RPA, TRAH-SCF, COSX integrals
   Lee Huntington         : MR-EOM, pCC
   Robert Izsak           : Overlap fitted RIJCOSX, COSX-SCS-MP3, EOM
   Marcus Kettner         : VPT2
   Christian Kollmar      : KDIIS, OOCD, Brueckner-CCSD(T), CCSD density, CASPT2, CASPT2-K
   Simone Kossmann        : Meta GGA functionals, TD-DFT gradient, OOMP2, MP2 Hessian
   Martin Krupicka        : Initial AUTO-CI
   Lucas Lang             : DCDCAS
   Marvin Lechner         : AUTO-CI (C++ implementation), FIC-MRCC
   Dagmar Lenk            : GEPOL surface, SMD
   Dimitrios Liakos       : Extrapolation schemes; Compound Job, initial MDCI parallelization
   Dimitrios Manganas     : Further ROCIS development; embedding schemes
   Dimitrios Pantazis     : SARC Basis sets
   Anastasios Papadopoulos: AUTO-CI, single reference methods and gradients
   Taras Petrenko         : DFT Hessian,TD-DFT gradient, ASA, ECA, R-Raman, ABS, FL, XAS/XES, NRVS
   Peter Pinski           : DLPNO-MP2, DLPNO-MP2 Gradient
   Christoph Reimann      : Effective Core Potentials
   Marius Retegan         : Local ZFS, SOC
   Christoph Riplinger    : Optimizer, TS searches, QM/MM, DLPNO-CCSD(T), (RO)-DLPNO pert. Triples
   Tobias Risthaus        : Range-separated hybrids, TD-DFT gradient, RPA, STAB
   Michael Roemelt        : Original ROCIS implementation
   Masaaki Saitow         : Open-shell DLPNO-CCSD energy and density
   Barbara Sandhoefer     : DKH picture change effects
   Avijit Sen             : IP-ROCIS
   Kantharuban Sivalingam : CASSCF convergence, NEVPT2, FIC-MRCI
   Bernardo de Souza      : ESD, SOC TD-DFT
   Georgi Stoychev        : AutoAux, RI-MP2 NMR, DLPNO-MP2 response
   Willem Van den Heuvel  : Paramagnetic NMR
   Boris Wezisla          : Elementary symmetry handling
   Frank Wennmohs         : Technical directorship


 We gratefully acknowledge several colleagues who have allowed us to
 interface, adapt or use parts of their codes:
   Stefan Grimme, W. Hujo, H. Kruse, P. Pracht,  : VdW corrections, initial TS optimization,
                  C. Bannwarth, S. Ehlert          DFT functionals, gCP, sTDA/sTD-DF
   Ed Valeev, F. Pavosevic, A. Kumar             : LibInt (2-el integral package), F12 methods
   Garnet Chan, S. Sharma, J. Yang, R. Olivares  : DMRG
   Ulf Ekstrom                                   : XCFun DFT Library
   Mihaly Kallay                                 : mrcc  (arbitrary order and MRCC methods)
   Jiri Pittner, Ondrej Demel                    : Mk-CCSD
   Frank Weinhold                                : gennbo (NPA and NBO analysis)
   Christopher J. Cramer and Donald G. Truhlar   : smd solvation model
   Lars Goerigk                                  : TD-DFT with DH, B97 family of functionals
   V. Asgeirsson, H. Jonsson                     : NEB implementation
   FAccTs GmbH                                   : IRC, NEB, NEB-TS, DLPNO-Multilevel, CI-OPT
                                                   MM, QMMM, 2- and 3-layer-ONIOM, Crystal-QMMM,
                                                   LR-CPCM, SF, NACMEs, symmetry and pop. for TD-DFT,
                                                   nearIR, NL-DFT gradient (VV10), updates on ESD,
                                                   ML-optimized integration grids
   S Lehtola, MJT Oliveira, MAL Marques          : LibXC Library
   Liviu Ungur et al                             : ANISO software


 Your calculation uses the libint2 library for the computation of 2-el integrals
 For citations please refer to: http://libint.valeyev.net

 Your ORCA version has been built with support for libXC version: 5.1.0
 For citations please refer to: https://tddft.org/programs/libxc/

 This ORCA versions uses:
   CBLAS   interface :  Fast vector & matrix operations
   LAPACKE interface :  Fast linear algebra routines
   SCALAPACK package :  Parallel linear algebra routines
   Shared memory     :  Shared parallel matrices
   BLAS/LAPACK       :  OpenBLAS 0.3.15  USE64BITINT DYNAMIC_ARCH NO_AFFINITY SkylakeX SINGLE_THREADED
        Core in use  :  SkylakeX
   Copyright (c) 2011-2014, The OpenBLAS Project


================================================================================

----- Orbital basis set information -----
Your calculation utilizes the basis: def2-SVP
   F. Weigend and R. Ahlrichs, Phys. Chem. Chem. Phys. 7, 3297 (2005).

The basis set includes element-specific modifications.

Your calculation utilizes the basis: aug-cc-pVTZ 
    H, B-Ne : Obtained from the ccRepo (grant-hill.group.shef.ac.uk/ccrepo) Feb. 2017
              R. A. Kendall, T. H. Dunning, Jr., R. J. Harrison, J. Chem. Phys. 96, 6796 (1992)
         He : Obtained from the ccRepo (grant-hill.group.shef.ac.uk/ccrepo) Feb. 2017
              D. E. Woon, T. H. Dunning, Jr., J. Chem. Phys. 100, 2975 (1994)
  Li-Be, Na : Obtained from the ccRepo (grant-hill.group.shef.ac.uk/ccrepo) Feb. 2017
              B. P. Prascher, D. E. Woon, K. A. Peterson, T. H. Dunning, Jr., A. K. Wilson, Theor. Chem. Acc. 128, 69 (2011)
         Mg : Obtained from the Peterson Research Group Website (tyr0.chem.wsu.edu/~kipeters) Feb. 2017
              B. P. Prascher, D. E. Woon, K. A. Peterson, T. H. Dunning, Jr., A. K. Wilson, Theor. Chem. Acc. 128, 69 (2011)
      Al-Ar : Obtained from the ccRepo (grant-hill.group.shef.ac.uk/ccrepo) Feb. 2017
              D. E. Woon, T. H. Dunning, Jr., J. Chem. Phys. 98, 1358 (1993)
      Sc-Zn : Obtained from the ccRepo (grant-hill.group.shef.ac.uk/ccrepo) Feb. 2017
              N. B. Balabanov, K. A. Peterson, J. Chem. Phys. 123, 064107 (2005)
              N. B. Balabanov, K. A. Peterson, J. Chem. Phys. 125, 074110 (2006)
      Ga-Kr : Obtained from the ccRepo (grant-hill.group.shef.ac.uk/ccrepo) Feb. 2017
              A. K. Wilson, D. E. Woon, K. A. Peterson, T. H. Dunning, Jr., J. Chem. Phys. 110, 7667 (1999)
     Ag, Au : Obtained from the Peterson Research Group Website (tyr0.chem.wsu.edu/~kipeters) Feb. 2017
              K. A. Peterson, C. Puzzarini, Theor. Chem. Acc. 114, 283 (2005)

Your calculation utilizes the basis: cc-pVTZ 
       H, B-Ne : Obtained from the ccRepo (grant-hill.group.shef.ac.uk/ccrepo) Feb. 2017
                 T. H. Dunning, Jr., J. Chem. Phys. 90, 1007 (1989)
            He : Obtained from the ccRepo (grant-hill.group.shef.ac.uk/ccrepo) Feb. 2017
                 D. E. Woon, T. H. Dunning, Jr., J. Chem. Phys. 100, 2975 (1994)
  Li-Be, Na-Mg : Obtained from the ccRepo (grant-hill.group.shef.ac.uk/ccrepo) Feb. 2017
                 B. P. Prascher, D. E. Woon, K. A. Peterson, T. H. Dunning, Jr., A. K. Wilson, Theor. Chem. Acc. 128, 69 (2011)
         Al-Ar : Obtained from the ccRepo (grant-hill.group.shef.ac.uk/ccrepo) Feb. 2017
                 D. E. Woon, T. H. Dunning, Jr., J. Chem. Phys. 98, 1358 (1993)
            Ca : Obtained from the Peterson Research Group Website (tyr0.chem.wsu.edu/~kipeters) Feb. 2017
                 J. Koput, K. A. Peterson, J. Phys. Chem. 106, 9595 (2002)
         Sc-Zn : Obtained from the ccRepo (grant-hill.group.shef.ac.uk/ccrepo) Feb. 2017
                 N. B. Balabanov, K. A. Peterson, J. Chem. Phys. 123, 064107 (2005)
                 N. B. Balabanov, K. A. Peterson, J. Chem. Phys. 125, 074110 (2006)
         Ga-Kr : Obtained from the ccRepo (grant-hill.group.shef.ac.uk/ccrepo) Feb. 2017
                 A. K. Wilson, D. E. Woon, K. A. Peterson, T. H. Dunning, Jr., J. Chem. Phys. 110, 7667 (1999)
             Y : Obtained from the ccRepo (grant-hill.group.shef.ac.uk/ccrepo) Feb. 2017
                 K. A. Peterson, D. Figgen, M. Dolg, H. Stoll, J. Chem. Phys. 126, 124101 (2007)
        Ag, Au : Obtained from the Peterson Research Group Website (tyr0.chem.wsu.edu/~kipeters) Feb. 2017
                 K. A. Peterson, C. Puzzarini, Theor. Chem. Acc. 114, 283 (2005)

----- AuxJ basis set information -----
Your calculation utilizes the auxiliary basis: def2/J
   F. Weigend, Phys. Chem. Chem. Phys. 8, 1057 (2006).

================================================================================
                                        WARNINGS
                       Please study these warnings very carefully!
================================================================================

WARNING: The globally-selected AuxJ basis set is optimized for use with ECPs
         Make sure a suitable alternative is explicitly given all heavy elements (Z>36)

INFO   : the flag for use of the SHARK integral package has been found!

================================================================================
                                       INPUT FILE
================================================================================
NAME = final035.orca.inp
|  1> ! NoMOPrint PrintBasis #MINIPRINT SMALLPRINT LARGEPRINT
|  2> ! ALLPOP XYZFILE
|  3> #! BP86 3-21G   TightSCF
|  4> ! ENGRAD
|  5> ! B3LYP NormalPNO PModel #DecontractAux
|  6> #! VerySlowConv 
|  7>  %maxcore 5000
|  8>  %scf  maxiter   500  end 
|  9> 
| 10> %pal
| 11>     nprocs 32
| 12> end
| 13> 
| 14> %basis
| 15>     NewGTO O    # New basis for oxygen
| 16>         "aug-cc-pVTZ"
| 17>     end
| 18>     NewGTO C    # New basis for carbon
| 19>         "aug-cc-pVTZ"
| 20>     end
| 21>     NewGTO H    # New basis for hydrogen
| 22>         "cc-pVTZ"
| 23>     end
| 24> end
| 25> 
| 26> * xyz 0   1
| 27>   C  12.19  11.75  12.8  #1
| 28>   H  13.15  11.35  13.27  #2
| 29>   H  11.31  11.82  13.43  #3
| 30>   C  11.81  10.88  11.61  #4
| 31>   H  12.14  11.33  10.71  #5
| 32>   H  12.33  9.91  11.6  #6
| 33>   C  10.26  10.62  11.53  #7
| 34>   H  9.66  11.5  11.74  #8
| 35>   H  9.99  9.91  12.35  #9
| 36>   C  9.73  9.86  10.35  #10
| 37>   H  8.7  9.78  10.46  #11
| 38>   H  10.08  8.83  10.44  #12
| 39>   O  10.11  10.44  9.08  #13
| 40>   H  9.7  9.83  8.42  #14
| 41>   O  12.46  13.02  12.26  #15
| 42>   H  13.15  13.02  11.57  #16
| 43>   O  7.03  10.82  13.01  #17
| 44>   H  6.84  11.74  12.86  #18
| 45>   H  6.42  10.48  13.69  #19
| 46>   O  8.02  9.53  7.35  #20
| 47>   H  8.63  9.26  6.65  #21
| 48>   H  7.56  10.22  6.91  #22
| 49>   O  10.06  8.89  5.6  #23
| 50>   H  9.69  8.15  5.1  #24
| 51>   H  10.39  9.55  4.95  #25
| 52>   O  10.04  13.24  8.98  #26
| 53>   H  9.36  13.57  9.58  #27
| 54>   H  10.14  12.28  9.06  #28
| 55>   O  5.81  8.75  11.19  #29
| 56>   H  6.04  9.65  11.61  #30
| 57>   H  6.14  8.1  11.85  #31
| 58>   O  4.57  10.62  8.75  #32
| 59>   H  5.21  9.98  9.06  #33
| 60>   H  3.8  10.06  8.55  #34
| 61>   O  15.34  9.35  12.26  #35
| 62>   H  15.53  10.01  12.99  #36
| 63>   H  14.71  8.67  12.56  #37
| 64>   O  13.39  7.57  12.92  #38
| 65>   H  13.19  6.65  12.95  #39
| 66>   H  12.72  7.96  13.5  #40
| 67>   O  13.15  8.03  9.75  #41
| 68>   H  12.4  7.77  9.13  #42
| 69>   H  13.05  7.83  10.63  #43
| 70>   O  6.54  7.66  8.98  #44
| 71>   H  6.81  8.36  8.41  #45
| 72>   H  6.32  8.17  9.77  #46
| 73>   O  5.01  9.92  14.95  #47
| 74>   H  4.06  9.84  14.71  #48
| 75>   H  5.23  9.01  15.24  #49
| 76>   O  10.37  14.59  11.67  #50
| 77>   H  11.14  14.09  11.92  #51
| 78>   H  10.67  15.52  11.45  #52
| 79>   O  5.7  10.7  6.08  #53
| 80>   H  5.39  10.65  7.02  #54
| 81>   H  5.64  9.79  5.76  #55
| 82>   O  12.76  15.04  15.04  #56
| 83>   H  12  14.46  14.96  #57
| 84>   H  13.42  14.5  14.59  #58
| 85>   O  10.75  11.62  15.54  #59
| 86>   H  10.1  11.22  16.16  #60
| 87>   H  10.4  12.41  15.15  #61
| 88>   O  10.12  14.17  14.7  #62
| 89>   H  10.15  14.02  13.73  #63
| 90>   H  9.13  14.18  14.91  #64
| 91>   O  8.07  6.73  4.64  #65
| 92>   H  8.33  6.9  3.71  #66
| 93>   H  7.44  7.41  4.96  #67
| 94>   O  12  14.83  8.14  #68
| 95>   H  12.45  14.26  7.5  #69
| 96>   H  11.31  14.3  8.52  #70
| 97>   O  7.6  12.92  6.64  #71
| 98>   H  8.17  12.83  7.43  #72
| 99>   H  6.72  12.83  6.91  #73
|100>   O  11.58  8.66  14.75  #74
|101>   H  11.43  9.48  15.18  #75
|102>   H  12.03  8.17  15.49  #76
|103>   O  8.47  7.76  13.72  #77
|104>   H  8.44  8.68  13.48  #78
|105>   H  8.85  7.73  14.62  #79
|106>   O  4.89  6.51  13.08  #80
|107>   H  5.37  6.81  13.89  #81
|108>   H  4.79  5.58  13.36  #82
|109>   O  2.89  8.77  11.31  #83
|110>   H  3.89  8.75  11.3  #84
|111>   H  2.72  9.3  10.56  #85
|112>   O  7.91  14.03  10.6  #86
|113>   H  7.58  14.69  9.94  #87
|114>   H  8.61  14.51  11.07  #88
|115>   O  12.94  11.01  8.06  #89
|116>   H  12.91  11.69  7.36  #90
|117>   H  12.06  10.79  8.34  #91
|118>   O  5.26  13.09  14.79  #92
|119>   H  5.42  12.97  13.82  #93
|120>   H  4.87  12.23  15.01  #94
|121>   O  11.44  7.38  7.77  #95
|122>   H  10.82  6.66  7.92  #96
|123>   H  11.1  7.89  7.01  #97
|124>   O  10.78  10.36  3.29  #98
|125>   H  11.67  10.01  3.52  #99
|126>   H  10.96  11.33  3.29  #100
|127>   O  5.85  13.54  12.2  #101
|128>   H  6.47  13.8  11.55  #102
|129>   H  4.95  13.85  11.86  #103
|130>   O  14.01  13.15  9.97  #104
|131>   H  14.23  12.28  9.64  #105
|132>   H  13.28  13.38  9.44  #106
|133>   Q  0.6645  5.86$  9.61$  17.49$
|134>   Q  0.6645  6.56$  9.17$  18.79$
|135>   Q  -1.3290  6.5$  9.34$  17.97$
|136>   Q  0.6645  18.43$  18.81$  8.99$
|137>   Q  0.6645  19.73$  18.25$  8.4$
|138>   Q  -1.3290  19.2$  18.49$  9.03$
|139>   Q  0.6645  15.9$  6.68$  13.24$
|140>   Q  0.6645  15.73$  7.21$  14.63$
|141>   Q  -1.3290  15.88$  6.61$  14.09$
|142>   Q  0.6645  14.73$  5.11$  6.81$
|143>   Q  0.6645  14.93$  4.36$  8.09$
|144>   Q  -1.3290  15.07$  4.53$  7.32$
|145>   Q  0.6645  15.18$  3.5$  15.24$
|146>   Q  0.6645  16.77$  3.22$  15.43$
|147>   Q  -1.3290  15.95$  3.07$  15.17$
|148>   Q  0.6645  7.81$  19.22$  6.66$
|149>   Q  0.6645  9.27$  19.76$  6.62$
|150>   Q  -1.3290  8.57$  19.46$  7$
|151>   Q  0.6645  9.34$  1$  13.93$
|152>   Q  0.6645  10.46$  -0.06$  14.4$
|153>   Q  -1.3290  9.88$  0.62$  14.51$
|154>   Q  0.6645  17.82$  6.16$  14.44$
|155>   Q  0.6645  18.92$  5.76$  13.44$
|156>   Q  -1.3290  18.59$  6.05$  14.17$
|157>   Q  0.6645  21.28$  13.7$  6.86$
|158>   Q  0.6645  20.46$  12.41$  7.17$
|159>   Q  -1.3290  20.81$  13.01$  6.67$
|160>   Q  0.6645  20.22$  5.72$  11.45$
|161>   Q  0.6645  19.4$  4.47$  11.74$
|162>   Q  -1.3290  19.47$  5.27$  11.61$
|163>   Q  0.6645  13.74$  19.07$  9.92$
|164>   Q  0.6645  14.84$  20.21$  9.92$
|165>   Q  -1.3290  14.41$  19.52$  10.2$
|166>   Q  0.6645  18.52$  16.07$  11.9$
|167>   Q  0.6645  19.19$  14.87$  11.84$
|168>   Q  -1.3290  18.52$  15.28$  11.99$
|169>   Q  0.6645  3.28$  11.15$  17.75$
|170>   Q  0.6645  4.57$  11.41$  18.65$
|171>   Q  -1.3290  3.96$  10.95$  18.2$
|172>   Q  0.6645  5.7$  11.7$  3.22$
|173>   Q  0.6645  6.31$  11.61$  4.61$
|174>   Q  -1.3290  6.29$  11.87$  3.79$
|175>   Q  0.6645  2.05$  3.78$  13.09$
|176>   Q  0.6645  1.79$  5.27$  12.52$
|177>   Q  -1.3290  2.13$  4.64$  13.04$
|178>   Q  0.6645  5$  14.61$  6.4$
|179>   Q  0.6645  4.01$  14.1$  7.55$
|180>   Q  -1.3290  4.75$  14.24$  7.15$
|181>   Q  0.6645  5.66$  2.82$  8.66$
|182>   Q  0.6645  5.83$  1.34$  9.03$
|183>   Q  -1.3290  5.52$  2.12$  9.11$
|184>   Q  0.6645  11.91$  4.36$  4.92$
|185>   Q  0.6645  11.88$  3.04$  4.08$
|186>   Q  -1.3290  11.61$  3.62$  4.63$
|187>   Q  0.6645  15.83$  18.49$  11.34$
|188>   Q  0.6645  15.22$  17.79$  12.49$
|189>   Q  -1.3290  15.87$  18.08$  12.06$
|190>   Q  0.6645  17.21$  12.19$  12.01$
|191>   Q  0.6645  17.41$  13.52$  11.46$
|192>   Q  -1.3290  16.99$  12.84$  11.53$
|193>   Q  0.6645  8.81$  16.67$  15.61$
|194>   Q  0.6645  9.7$  16.04$  14.51$
|195>   Q  -1.3290  9.12$  16.58$  14.79$
|196>   Q  0.6645  22.58$  10.18$  13.99$
|197>   Q  0.6645  21.21$  9.68$  13.47$
|198>   Q  -1.3290  21.78$  10.24$  13.74$
|199>   Q  0.6645  17.48$  20.89$  10.97$
|200>   Q  0.6645  17.2$  21.01$  9.49$
|201>   Q  -1.3290  17.28$  20.61$  10.22$
|202>   Q  0.6645  14.42$  5.33$  14.59$
|203>   Q  0.6645  13.37$  4.76$  15.64$
|204>   Q  -1.3290  13.82$  4.76$  14.92$
|205>   Q  0.6645  8.35$  15.69$  2.26$
|206>   Q  0.6645  8.52$  14.79$  3.47$
|207>   Q  -1.3290  8.33$  15.52$  3.08$
|208>   Q  0.6645  5.53$  1.97$  5.03$
|209>   Q  0.6645  6.92$  2.61$  5.38$
|210>   Q  -1.3290  6.35$  2.02$  5.24$
|211>   Q  0.6645  3.23$  5.15$  4.64$
|212>   Q  0.6645  4.53$  4.57$  4.18$
|213>   Q  -1.3290  3.8$  4.54$  4.53$
|214>   Q  0.6645  9.14$  5.4$  11.62$
|215>   Q  0.6645  9.2$  6.04$  13.01$
|216>   Q  -1.3290  9.43$  5.51$  12.4$
|217>   Q  0.6645  1.38$  12.61$  11.06$
|218>   Q  0.6645  0.63$  11.58$  11.92$
|219>   Q  -1.3290  1.29$  11.92$  11.52$
|220>   Q  0.6645  10.28$  20.99$  10.51$
|221>   Q  0.6645  9.74$  19.48$  10.56$
|222>   Q  -1.3290  10.03$  20.26$  10.86$
|223>   Q  0.6645  12.75$  16.5$  8.42$
|224>   Q  0.6645  12.93$  18.07$  8.29$
|225>   Q  -1.3290  12.97$  17.29$  8.68$
|226>   Q  0.6645  9.12$  18.49$  8.87$
|227>   Q  0.6645  8.04$  18.26$  9.85$
|228>   Q  -1.3290  8.86$  18.27$  9.64$
|229>   Q  0.6645  17.84$  18.26$  12.25$
|230>   Q  0.6645  18.85$  18.56$  11.04$
|231>   Q  -1.3290  18.58$  18.25$  11.8$
|232>   Q  0.6645  16.17$  11.7$  14.28$
|233>   Q  0.6645  17.4$  10.86$  13.82$
|234>   Q  -1.3290  16.59$  10.99$  14.12$
|235>   Q  0.6645  13.82$  19.75$  6.9$
|236>   Q  0.6645  12.27$  19.63$  6.94$
|237>   Q  -1.3290  13.06$  19.54$  7.24$
|238>   Q  0.6645  17.03$  4.31$  6.9$
|239>   Q  0.6645  17.83$  4.06$  5.6$
|240>   Q  -1.3290  17.68$  4.42$  6.35$
|241>   Q  0.6645  4.72$  5.88$  11.42$
|242>   Q  0.6645  5.14$  4.58$  10.8$
|243>   Q  -1.3290  4.82$  5.34$  10.8$
|244>   Q  0.6645  18.1$  14.35$  15.85$
|245>   Q  0.6645  19.31$  13.37$  16.13$
|246>   Q  -1.3290  18.56$  13.78$  16.29$
|247>   Q  0.6645  17.34$  9.67$  10.05$
|248>   Q  0.6645  18.63$  9.75$  11.02$
|249>   Q  -1.3290  18.19$  9.62$  10.3$
|250>   Q  0.6645  7.58$  15.68$  8.05$
|251>   Q  0.6645  6.12$  15.12$  8.26$
|252>   Q  -1.3290  6.88$  15.5$  8.48$
|253>   Q  0.6645  6.26$  17.96$  14.05$
|254>   Q  0.6645  7.54$  17.25$  13.97$
|255>   Q  -1.3290  6.85$  17.6$  13.65$
|256>   Q  0.6645  18.89$  12.58$  8.73$
|257>   Q  0.6645  18.92$  11.02$  9.01$
|258>   Q  -1.3290  19.24$  11.79$  8.81$
|259>   Q  0.6645  13.28$  18.38$  14.57$
|260>   Q  0.6645  12.87$  18.44$  16.07$
|261>   Q  -1.3290  13.34$  18.61$  15.36$
|262>   Q  0.6645  17.92$  13.44$  19.57$
|263>   Q  0.6645  17.82$  14.42$  18.39$
|264>   Q  -1.3290  17.62$  14.09$  19.14$
|265>   Q  0.6645  13.07$  3.28$  8.94$
|266>   Q  0.6645  11.98$  2.36$  9.42$
|267>   Q  -1.3290  12.28$  2.99$  8.96$
|268>   Q  0.6645  7.9$  5.17$  5.35$
|269>   Q  0.6645  7.24$  4.56$  6.57$
|270>   Q  -1.3290  7.71$  4.53$  5.9$
|271>   Q  0.6645  8.96$  13.3$  5.02$
|272>   Q  0.6645  8.02$  12.72$  3.86$
|273>   Q  -1.3290  8.68$  13.16$  4.25$
|274>   Q  0.6645  16.16$  14.53$  20.58$
|275>   Q  0.6645  14.84$  14.83$  21.41$
|276>   Q  -1.3290  15.67$  14.59$  21.28$
|277>   Q  0.6645  13.81$  7.5$  17.6$
|278>   Q  0.6645  13.99$  8.37$  16.32$
|279>   Q  -1.3290  13.58$  7.82$  16.82$
|280>   Q  0.6645  7.7$  6.11$  9.51$
|281>   Q  0.6645  8.9$  5.16$  9.38$
|282>   Q  -1.3290  8.25$  5.55$  9.79$
|283>   Q  0.6645  4.57$  17.4$  15.58$
|284>   Q  0.6645  5.17$  18.6$  16.19$
|285>   Q  -1.3290  5.03$  18.11$  15.55$
|286>   Q  0.6645  8.66$  1.92$  15.91$
|287>   Q  0.6645  8.1$  3.3$  16.54$
|288>   Q  -1.3290  8.67$  2.64$  16.38$
|289>   Q  0.6645  10.32$  4.75$  14.45$
|290>   Q  0.6645  9.82$  3.99$  15.66$
|291>   Q  -1.3290  10.15$  4.63$  15.27$
|292>   Q  0.6645  14.74$  7.16$  9.19$
|293>   Q  0.6645  15.88$  6.79$  10.19$
|294>   Q  -1.3290  15.47$  6.81$  9.45$
|295>   Q  0.6645  16.66$  10.72$  19.63$
|296>   Q  0.6645  16.88$  11.22$  21.15$
|297>   Q  -1.3290  17.07$  11.03$  20.32$
|298>   Q  0.6645  20.9$  13.87$  14.19$
|299>   Q  0.6645  20.43$  15.32$  13.7$
|300>   Q  -1.3290  20.65$  14.49$  13.64$
|301>   Q  0.6645  1.21$  14.25$  14.79$
|302>   Q  0.6645  2.37$  14.43$  13.81$
|303>   Q  -1.3290  1.75$  14.71$  14.34$
|304>   Q  0.6645  9.12$  9.82$  2.19$
|305>   Q  0.6645  7.95$  10.66$  1.72$
|306>   Q  -1.3290  8.36$  9.94$  1.86$
|307>   Q  0.6645  6.17$  4.11$  15.41$
|308>   Q  0.6645  6.49$  4.83$  16.74$
|309>   Q  -1.3290  6.35$  4.16$  16.24$
|310>   Q  0.6645  4.15$  7.99$  19.62$
|311>   Q  0.6645  3.72$  6.71$  18.99$
|312>   Q  -1.3290  4.17$  7.43$  19.03$
|313>   Q  0.6645  18.11$  14.44$  7.51$
|314>   Q  0.6645  17.66$  14.45$  9.06$
|315>   Q  -1.3290  18.16$  14.36$  8.39$
|316>   Q  0.6645  12.69$  17.07$  12.5$
|317>   Q  0.6645  13.26$  16.41$  13.82$
|318>   Q  -1.3290  13.27$  16.94$  13.11$
|319>   Q  0.6645  13.47$  8.09$  3.46$
|320>   Q  0.6645  13.61$  9.35$  2.64$
|321>   Q  -1.3290  13.2$  8.78$  3.1$
|322>   Q  0.6645  5.78$  2.79$  2.99$
|323>   Q  0.6645  6.97$  3.68$  3.53$
|324>   Q  -1.3290  6.19$  3.53$  3.18$
|325>   Q  0.6645  19.9$  17.64$  13.49$
|326>   Q  0.6645  21.19$  17.37$  14.26$
|327>   Q  -1.3290  20.35$  17.31$  14.11$
|328>   Q  0.6645  13.6$  4.56$  10.42$
|329>   Q  0.6645  14.75$  5.2$  9.8$
|330>   Q  -1.3290  14.25$  4.52$  9.95$
|331>   Q  0.6645  21.95$  12.71$  16.25$
|332>   Q  0.6645  21.51$  14.13$  16.75$
|333>   Q  -1.3290  21.54$  13.47$  16.18$
|334>   Q  0.6645  14.11$  13.82$  6.62$
|335>   Q  0.6645  13.72$  12.88$  5.58$
|336>   Q  -1.3290  13.72$  13.18$  6.35$
|337>   Q  0.6645  7.06$  7.38$  15.38$
|338>   Q  0.6645  5.9$  7.5$  16.53$
|339>   Q  -1.3290  6.23$  7.37$  15.71$
|340>   Q  0.6645  3.78$  15.71$  11.94$
|341>   Q  0.6645  2.39$  14.89$  11.63$
|342>   Q  -1.3290  3.24$  15.02$  11.83$
|343>   Q  0.6645  16.29$  11.66$  6.64$
|344>   Q  0.6645  15.78$  10.94$  7.93$
|345>   Q  -1.3290  16.26$  11.03$  7.21$
|346>   Q  0.6645  5.14$  16.17$  18.81$
|347>   Q  0.6645  5.1$  15.51$  17.51$
|348>   Q  -1.3290  5.49$  15.83$  18.14$
|349>   Q  0.6645  7.98$  7.98$  2.06$
|350>   Q  0.6645  9.21$  7.28$  1.6$
|351>   Q  -1.3290  8.46$  7.32$  1.98$
|352>   Q  0.6645  10.63$  6.18$  19.86$
|353>   Q  0.6645  10.79$  7.22$  18.75$
|354>   Q  -1.3290  10.94$  6.51$  19.17$
|355>   Q  0.6645  15.61$  4.99$  19.03$
|356>   Q  0.6645  14.43$  5.15$  17.97$
|357>   Q  -1.3290  15.13$  5.38$  18.42$
|358>   Q  0.6645  5.68$  5.15$  8.8$
|359>   Q  0.6645  5.04$  4.69$  7.49$
|360>   Q  -1.3290  5.64$  4.75$  8.05$
|361>   Q  0.6645  5.82$  18.65$  9.44$
|362>   Q  0.6645  6.29$  17.14$  9.51$
|363>   Q  -1.3290  6.26$  17.99$  9.74$
|364>   Q  0.6645  12.28$  16.84$  10.45$
|365>   Q  0.6645  10.96$  17.47$  10.58$
|366>   Q  -1.3290  11.65$  17.11$  10.87$
|367>   Q  0.6645  11.83$  13.14$  19.21$
|368>   Q  0.6645  12.24$  14.33$  20.16$
|369>   Q  -1.3290  11.74$  13.68$  19.89$
|370>   Q  0.6645  8.14$  12.28$  -0.15$
|371>   Q  0.6645  9$  12.78$  0.89$
|372>   Q  -1.3290  8.26$  12.64$  0.59$
|373>   Q  0.6645  14.65$  2.61$  6.18$
|374>   Q  0.6645  13.94$  1.41$  6.14$
|375>   Q  -1.3290  14.63$  1.83$  6.08$
|376>   Q  0.6645  4.57$  14.82$  15.55$
|377>   Q  0.6645  3.13$  15.14$  15.78$
|378>   Q  -1.3290  3.94$  15.12$  16.01$
|379>   Q  0.6645  19.87$  16.75$  10.04$
|380>   Q  0.6645  19.44$  15.41$  9.42$
|381>   Q  -1.3290  19.92$  15.91$  9.9$
|382>   Q  0.6645  11.21$  5.11$  -0.21$
|383>   Q  0.6645  10.66$  6.2$  0.62$
|384>   Q  -1.3290  10.59$  5.5$  0.16$
|385>   Q  0.6645  18.66$  15.14$  5.09$
|386>   Q  0.6645  17.47$  15.88$  5.63$
|387>   Q  -1.3290  17.96$  15.22$  5.54$
|388>   Q  0.6645  15.97$  3.18$  10.61$
|389>   Q  0.6645  17.32$  2.43$  10.55$
|390>   Q  -1.3290  16.48$  2.51$  10.51$
|391>   Q  0.6645  20.94$  13.23$  10.98$
|392>   Q  0.6645  20.23$  12.1$  10.18$
|393>   Q  -1.3290  20.47$  12.53$  10.89$
|394>   Q  0.6645  5.92$  14.16$  3.01$
|395>   Q  0.6645  5.72$  15.64$  2.89$
|396>   Q  -1.3290  5.54$  14.8$  2.78$
|397>   Q  0.6645  3.8$  12.32$  5.16$
|398>   Q  0.6645  2.31$  11.88$  5.06$
|399>   Q  -1.3290  2.96$  12.41$  5.21$
|400>   Q  0.6645  9.03$  11.41$  19.54$
|401>   Q  0.6645  9.51$  10.7$  20.79$
|402>   Q  -1.3290  8.94$  11.11$  20.3$
|403>   Q  0.6645  3.33$  15.77$  10.01$
|404>   Q  0.6645  2.26$  16.84$  10.1$
|405>   Q  -1.3290  2.94$  16.44$  9.72$
|406>   Q  0.6645  5.13$  3.29$  13.15$
|407>   Q  0.6645  6.45$  3.92$  13.16$
|408>   Q  -1.3290  5.68$  3.79$  13.46$
|409>   Q  0.6645  7.63$  14.46$  16.78$
|410>   Q  0.6645  6.84$  13.7$  15.66$
|411>   Q  -1.3290  7.52$  13.9$  16.15$
|412>   Q  0.6645  20.05$  8.42$  16.2$
|413>   Q  0.6645  19.25$  7.07$  16.26$
|414>   Q  -1.3290  19.94$  7.6$  16.31$
|415>   Q  0.6645  16.05$  9.03$  19.65$
|416>   Q  0.6645  16.03$  9.37$  18.11$
|417>   Q  -1.3290  15.72$  9.11$  18.87$
|418>   Q  0.6645  -0.23$  15.26$  10.69$
|419>   Q  0.6645  0.28$  14.73$  12.14$
|420>   Q  -1.3290  0.31$  14.89$  11.27$
|421>   Q  0.6645  18.17$  18.25$  6.18$
|422>   Q  0.6645  16.72$  18.15$  6.79$
|423>   Q  -1.3290  17.32$  18.13$  6.15$
|424>   Q  0.6645  3.43$  6.97$  7.53$
|425>   Q  0.6645  4.98$  6.94$  7.82$
|426>   Q  -1.3290  4.26$  7.04$  7.33$
|427>   Q  0.6645  9.72$  3.99$  2.91$
|428>   Q  0.6645  9.05$  4.72$  1.89$
|429>   Q  -1.3290  9.06$  4.17$  2.46$
|430>   Q  0.6645  14.09$  14.18$  3.21$
|431>   Q  0.6645  12.87$  13.09$  3.31$
|432>   Q  -1.3290  13.69$  13.39$  3.37$
|433>   Q  0.6645  15.2$  7.52$  5.63$
|434>   Q  0.6645  16.02$  6.39$  5.2$
|435>   Q  -1.3290  15.34$  6.84$  5.16$
|436>   Q  0.6645  12.79$  15.9$  1.98$
|437>   Q  0.6645  11.84$  16.11$  3.1$
|438>   Q  -1.3290  12.08$  15.83$  2.38$
|439>   Q  0.6645  8.2$  11.93$  16.93$
|440>   Q  0.6645  7.89$  10.58$  17.67$
|441>   Q  -1.3290  8.37$  11.18$  17.36$
|442>   Q  0.6645  19.11$  17.34$  16.01$
|443>   Q  0.6645  17.87$  17.11$  16.94$
|444>   Q  -1.3290  18.69$  17.25$  16.74$
|445>   Q  0.6645  11.93$  20.96$  13.24$
|446>   Q  0.6645  12.27$  20.63$  14.68$
|447>   Q  -1.3290  11.73$  20.77$  14.06$
|448>   Q  0.6645  2.6$  12.55$  7.05$
|449>   Q  0.6645  3.14$  12.47$  8.47$
|450>   Q  -1.3290  2.62$  12.76$  7.87$
|451>   Q  0.6645  17.16$  16.4$  14.93$
|452>   Q  0.6645  17.5$  15.46$  13.73$
|453>   Q  -1.3290  17.22$  15.66$  14.51$
|454>   Q  0.6645  12.05$  1.69$  7.19$
|455>   Q  0.6645  11.81$  2.19$  5.79$
|456>   Q  -1.3290  11.97$  1.58$  6.38$
|457>   Q  0.6645  3.79$  11.43$  2.12$
|458>   Q  0.6645  4.24$  9.99$  2.43$
|459>   Q  -1.3290  4.34$  10.79$  2.14$
|460>   Q  0.6645  2.1$  5.49$  8.48$
|461>   Q  0.6645  3.07$  6.06$  9.58$
|462>   Q  -1.3290  2.48$  6.1$  8.96$
|463>   Q  0.6645  5.28$  17.66$  12.18$
|464>   Q  0.6645  3.93$  18.11$  11.41$
|465>   Q  -1.3290  4.4$  17.69$  12.03$
|466>   Q  0.6645  15.15$  16.04$  7.47$
|467>   Q  0.6645  14.74$  16.26$  6.03$
|468>   Q  -1.3290  14.81$  15.85$  6.74$
|469>   Q  0.6645  14.32$  12.88$  17.58$
|470>   Q  0.6645  15.44$  13.51$  18.23$
|471>   Q  -1.3290  15.11$  13.09$  17.63$
|472>   Q  0.6645  0.92$  6.45$  10.74$
|473>   Q  0.6645  0.52$  5$  11.02$
|474>   Q  -1.3290  0.56$  5.81$  11.17$
|475>   Q  0.6645  19.26$  11.48$  19.4$
|476>   Q  0.6645  19.32$  12.22$  18.06$
|477>   Q  -1.3290  19.52$  12.12$  18.89$
|478>   Q  0.6645  13.12$  15.42$  16.89$
|479>   Q  0.6645  13.72$  16.05$  18.12$
|480>   Q  -1.3290  13.09$  15.81$  17.63$
|481>   Q  0.6645  2.56$  3.23$  7.81$
|482>   Q  0.6645  2.93$  3.91$  6.34$
|483>   Q  -1.3290  2.67$  3.88$  7.18$
|484>   Q  0.6645  12.17$  12.01$  17.15$
|485>   Q  0.6645  12.63$  11.15$  18.28$
|486>   Q  -1.3290  12.49$  11.88$  17.9$
|487>   Q  0.6645  7.77$  4.02$  10.62$
|488>   Q  0.6645  6.62$  2.8$  10.53$
|489>   Q  -1.3290  7.24$  3.34$  10.9$
|490>   Q  0.6645  15.32$  13.55$  15.57$
|491>   Q  0.6645  16.02$  14.29$  14.43$
|492>   Q  -1.3290  15.46$  13.74$  14.75$
|493>   Q  0.6645  15.53$  2.17$  13.46$
|494>   Q  0.6645  15.33$  1.77$  11.98$
|495>   Q  -1.3290  15.26$  1.65$  12.8$
|496>   Q  0.6645  11.98$  0.22$  10.94$
|497>   Q  0.6645  11.01$  1.31$  11.33$
|498>   Q  -1.3290  11.37$  0.77$  10.78$
|499>   Q  0.6645  12.23$  4.85$  17.95$
|500>   Q  0.6645  12.39$  3.8$  16.85$
|501>   Q  -1.3290  12.64$  4.34$  17.43$
|502>   Q  0.6645  15.77$  17.71$  4.79$
|503>   Q  0.6645  14.39$  18.02$  3.95$
|504>   Q  -1.3290  14.94$  17.61$  4.48$
|505>   Q  0.6645  16.35$  19$  16$
|506>   Q  0.6645  15.24$  18.06$  15.68$
|507>   Q  -1.3290  15.98$  18.26$  15.98$
|508>   Q  0.6645  11.11$  14.14$  2.36$
|509>   Q  0.6645  10.04$  13.27$  2.97$
|510>   Q  -1.3290  10.74$  13.4$  2.55$
|511>   Q  0.6645  14.04$  9.93$  0.38$
|512>   Q  0.6645  13.57$  8.62$  -0.19$
|513>   Q  -1.3290  14.04$  9.11$  0.31$
|514>   Q  0.6645  19.18$  10.25$  12.93$
|515>   Q  0.6645  19.24$  11.65$  12.28$
|516>   Q  -1.3290  18.84$  10.97$  12.64$
|517>   Q  0.6645  20.44$  10.75$  15.6$
|518>   Q  0.6645  20.28$  10.44$  17.24$
|519>   Q  -1.3290  20.03$  10.53$  16.37$
|520>   Q  0.6645  19.1$  6.97$  5.32$
|521>   Q  0.6645  17.98$  7.84$  6.08$
|522>   Q  -1.3290  18.4$  7.47$  5.39$
|523>   Q  0.6645  12.11$  9.24$  18.7$
|524>   Q  0.6645  13.53$  9.42$  19$
|525>   Q  -1.3290  12.74$  9.59$  19.12$
|526>   Q  0.6645  8.35$  2.06$  11.92$
|527>   Q  0.6645  8.55$  0.55$  12.09$
|528>   Q  -1.3290  8.76$  1.36$  12.23$
|529>   Q  0.6645  5.25$  7.66$  5.84$
|530>   Q  0.6645  5.22$  8.01$  4.34$
|531>   Q  -1.3290  5.53$  8.02$  5.13$
|532>   Q  0.6645  0.46$  9.85$  9.96$
|533>   Q  0.6645  0.68$  9.02$  11.22$
|534>   Q  -1.3290  0.23$  9.38$  10.6$
|535>   Q  0.6645  1.93$  8.36$  8.62$
|536>   Q  0.6645  1.91$  9.54$  7.65$
|537>   Q  -1.3290  1.97$  9.16$  8.42$
|538>   Q  0.6645  2.78$  6.22$  14.56$
|539>   Q  0.6645  2.68$  6.05$  15.92$
|540>   Q  -1.3290  2.51$  6.46$  15.28$
|541>   Q  0.6645  13.29$  20.43$  18.71$
|542>   Q  0.6645  13.29$  18.81$  18.85$
|543>   Q  -1.3290  13.5$  19.65$  19.05$
|544>   Q  0.6645  10.24$  16.45$  19.94$
|545>   Q  0.6645  10.42$  14.95$  19.64$
|546>   Q  -1.3290  9.99$  15.68$  19.73$
|547>   Q  0.6645  17.91$  11.01$  16.77$
|548>   Q  0.6645  16.61$  11.54$  17.37$
|549>   Q  -1.3290  17.26$  10.97$  17.3$
|550>   Q  0.6645  9.32$  6.1$  16.12$
|551>   Q  0.6645  8.24$  6.77$  16.94$
|552>   Q  -1.3290  8.86$  6.76$  16.36$
|553>   Q  0.6645  2.68$  9.29$  13.05$
|554>   Q  0.6645  2.31$  8.45$  14.38$
|555>   Q  -1.3290  2.45$  9.15$  13.87$
|556>   Q  0.6645  8.72$  16.52$  18.27$
|557>   Q  0.6645  7.32$  16.64$  17.67$
|558>   Q  -1.3290  8.15$  16.78$  17.7$
|559>   Q  0.6645  11.78$  9.95$  20.66$
|560>   Q  0.6645  11.46$  10.71$  21.94$
|561>   Q  -1.3290  11.28$  10.19$  21.3$
|562>   Q  0.6645  13.43$  6.14$  5.49$
|563>   Q  0.6645  12.11$  5.85$  6.46$
|564>   Q  -1.3290  12.75$  5.74$  5.83$
|565>   Q  0.6645  17.72$  6.86$  11.42$
|566>   Q  0.6645  16.78$  7.98$  11.88$
|567>   Q  -1.3290  16.97$  7.17$  11.65$
|568>   Q  0.6645  7.46$  19.32$  12.26$
|569>   Q  0.6645  8.37$  20.33$  12.23$
|570>   Q  -1.3290  7.61$  20.09$  12.12$
|571>   Q  0.6645  16.53$  6.44$  17.37$
|572>   Q  0.6645  17.74$  7.08$  18.06$
|573>   Q  -1.3290  17.29$  6.8$  17.39$
|574>   Q  0.6645  12.87$  6.63$  20.02$
|575>   Q  0.6645  14.36$  6.72$  19.65$
|576>   Q  -1.3290  13.68$  6.86$  20.1$
|577>   Q  0.6645  13.47$  20.34$  11.45$
|578>   Q  0.6645  13.97$  21.34$  12.58$
|579>   Q  -1.3290  13.41$  21.01$  12.03$
|580>   Q  0.6645  19.45$  7.72$  13.78$
|581>   Q  0.6645  19.97$  7.86$  12.35$
|582>   Q  -1.3290  19.65$  8.14$  13.07$
|583>   Q  0.6645  15.46$  17.26$  17.87$
|584>   Q  0.6645  15.39$  16.93$  19.49$
|585>   Q  -1.3290  15.27$  16.81$  18.61$
|586>   Q  0.6645  10.78$  16.04$  5.51$
|587>   Q  0.6645  9.78$  16.34$  4.41$
|588>   Q  -1.3290  10.52$  16.38$  4.77$
|589>   Q  0.6645  15.2$  10.4$  10.6$
|590>   Q  0.6645  15.99$  11.71$  10.32$
|591>   Q  -1.3290  15.6$  10.97$  10.13$
|592>   Q  0.6645  10.81$  17.9$  17.28$
|593>   Q  0.6645  12$  17.16$  17.98$
|594>   Q  -1.3290  11.49$  17.83$  17.78$
|595>   Q  0.6645  16.02$  9.58$  15.32$
|596>   Q  0.6645  16.56$  8.33$  16.22$
|597>   Q  -1.3290  15.99$  8.82$  15.72$
|598>   Q  0.6645  10.06$  8.08$  17.12$
|599>   Q  0.6645  9.66$  9.36$  17.85$
|600>   Q  -1.3290  10.2$  8.79$  17.59$
|601>   Q  0.6645  3.44$  7.49$  3.16$
|602>   Q  0.6645  4.49$  7.89$  2.13$
|603>   Q  -1.3290  3.99$  7.99$  2.8$
|604>   Q  0.6645  15.29$  9.48$  6.8$
|605>   Q  0.6645  13.85$  9.09$  7.13$
|606>   Q  -1.3290  14.64$  8.96$  6.84$
|607>   Q  0.6645  7.19$  10.25$  20.61$
|608>   Q  0.6645  6.51$  9.06$  21.39$
|609>   Q  -1.3290  6.59$  9.67$  20.78$
|610>   Q  0.6645  19.7$  6.59$  7.85$
|611>   Q  0.6645  19.24$  5.47$  6.97$
|612>   Q  -1.3290  19.81$  5.98$  7.32$
|613>   Q  0.6645  15.46$  10.83$  3.92$
|614>   Q  0.6645  16.32$  9.97$  3$
|615>   Q  -1.3290  15.62$  10.41$  3.21$
|616>   Q  0.6645  12.79$  4.45$  12.94$
|617>   Q  0.6645  11.4$  5$  12.39$
|618>   Q  -1.3290  12.22$  4.74$  12.36$
|619>   Q  0.6645  5.46$  13.46$  20.51$
|620>   Q  0.6645  5.64$  13.99$  19.11$
|621>   Q  -1.3290  5.49$  13.39$  19.67$
|622>   Q  0.6645  10.82$  8.66$  0.4$
|623>   Q  0.6645  11.65$  8.19$  1.62$
|624>   Q  -1.3290  11.03$  8.12$  1.05$
|625>   Q  0.6645  13.65$  12.35$  22.34$
|626>   Q  0.6645  13.39$  11.93$  20.86$
|627>   Q  -1.3290  13.54$  11.82$  21.7$
|628>   Q  0.6645  15.79$  12.98$  3.9$
|629>   Q  0.6645  17$  13.37$  4.82$
|630>   Q  -1.3290  16.46$  12.84$  4.42$
|631>   Q  0.6645  9.98$  4.41$  6.8$
|632>   Q  0.6645  10.74$  4$  8.03$
|633>   Q  -1.3290  10.31$  4.58$  7.53$
|634>   Q  0.6645  17.27$  9.22$  7.58$
|635>   Q  0.6645  16.67$  7.79$  7.84$
|636>   Q  -1.3290  17.24$  8.37$  7.57$
|637>   Q  0.6645  7.45$  5.66$  19.13$
|638>   Q  0.6645  6.19$  6.55$  18.78$
|639>   Q  -1.3290  6.85$  6.02$  18.62$
|640>   Q  0.6645  15.55$  14.58$  10.05$
|641>   Q  0.6645  15.92$  15.99$  10.72$
|642>   Q  -1.3290  15.85$  15.41$  10.1$
|643>   Q  0.6645  15.55$  18.11$  8.89$
|644>   Q  0.6645  16.56$  17.03$  8.8$
|645>   Q  -1.3290  16.2$  17.7$  8.53$
|646>   Q  0.6645  19.45$  8.66$  8.89$
|647>   Q  0.6645  20.94$  8.49$  9.14$
|648>   Q  -1.3290  20.22$  8.38$  8.71$
|649>   Q  0.6645  8.09$  15.96$  5.59$
|650>   Q  0.6645  8.14$  14.71$  6.35$
|651>   Q  -1.3290  8.37$  15.47$  6.2$
|652> *
|653> 
|654>                          ****END OF INPUT****
================================================================================

                     *******************************
                     * Energy+Gradient Calculation *
                     *******************************

---------------------------------
CARTESIAN COORDINATES (ANGSTROEM)
---------------------------------
  C     12.190000   11.750000   12.800000
  H     13.150000   11.350000   13.270000
  H     11.310000   11.820000   13.430000
  C     11.810000   10.880000   11.610000
  H     12.140000   11.330000   10.710000
  H     12.330000    9.910000   11.600000
  C     10.260000   10.620000   11.530000
  H      9.660000   11.500000   11.740000
  H      9.990000    9.910000   12.350000
  C      9.730000    9.860000   10.350000
  H      8.700000    9.780000   10.460000
  H     10.080000    8.830000   10.440000
  O     10.110000   10.440000    9.080000
  H      9.700000    9.830000    8.420000
  O     12.460000   13.020000   12.260000
  H     13.150000   13.020000   11.570000
  O      7.030000   10.820000   13.010000
  H      6.840000   11.740000   12.860000
  H      6.420000   10.480000   13.690000
  O      8.020000    9.530000    7.350000
  H      8.630000    9.260000    6.650000
  H      7.560000   10.220000    6.910000
  O     10.060000    8.890000    5.600000
  H      9.690000    8.150000    5.100000
  H     10.390000    9.550000    4.950000
  O     10.040000   13.240000    8.980000
  H      9.360000   13.570000    9.580000
  H     10.140000   12.280000    9.060000
  O      5.810000    8.750000   11.190000
  H      6.040000    9.650000   11.610000
  H      6.140000    8.100000   11.850000
  O      4.570000   10.620000    8.750000
  H      5.210000    9.980000    9.060000
  H      3.800000   10.060000    8.550000
  O     15.340000    9.350000   12.260000
  H     15.530000   10.010000   12.990000
  H     14.710000    8.670000   12.560000
  O     13.390000    7.570000   12.920000
  H     13.190000    6.650000   12.950000
  H     12.720000    7.960000   13.500000
  O     13.150000    8.030000    9.750000
  H     12.400000    7.770000    9.130000
  H     13.050000    7.830000   10.630000
  O      6.540000    7.660000    8.980000
  H      6.810000    8.360000    8.410000
  H      6.320000    8.170000    9.770000
  O      5.010000    9.920000   14.950000
  H      4.060000    9.840000   14.710000
  H      5.230000    9.010000   15.240000
  O     10.370000   14.590000   11.670000
  H     11.140000   14.090000   11.920000
  H     10.670000   15.520000   11.450000
  O      5.700000   10.700000    6.080000
  H      5.390000   10.650000    7.020000
  H      5.640000    9.790000    5.760000
  O     12.760000   15.040000   15.040000
  H     12.000000   14.460000   14.960000
  H     13.420000   14.500000   14.590000
  O     10.750000   11.620000   15.540000
  H     10.100000   11.220000   16.160000
  H     10.400000   12.410000   15.150000
  O     10.120000   14.170000   14.700000
  H     10.150000   14.020000   13.730000
  H      9.130000   14.180000   14.910000
  O      8.070000    6.730000    4.640000
  H      8.330000    6.900000    3.710000
  H      7.440000    7.410000    4.960000
  O     12.000000   14.830000    8.140000
  H     12.450000   14.260000    7.500000
  H     11.310000   14.300000    8.520000
  O      7.600000   12.920000    6.640000
  H      8.170000   12.830000    7.430000
  H      6.720000   12.830000    6.910000
  O     11.580000    8.660000   14.750000
  H     11.430000    9.480000   15.180000
  H     12.030000    8.170000   15.490000
  O      8.470000    7.760000   13.720000
  H      8.440000    8.680000   13.480000
  H      8.850000    7.730000   14.620000
  O      4.890000    6.510000   13.080000
  H      5.370000    6.810000   13.890000
  H      4.790000    5.580000   13.360000
  O      2.890000    8.770000   11.310000
  H      3.890000    8.750000   11.300000
  H      2.720000    9.300000   10.560000
  O      7.910000   14.030000   10.600000
  H      7.580000   14.690000    9.940000
  H      8.610000   14.510000   11.070000
  O     12.940000   11.010000    8.060000
  H     12.910000   11.690000    7.360000
  H     12.060000   10.790000    8.340000
  O      5.260000   13.090000   14.790000
  H      5.420000   12.970000   13.820000
  H      4.870000   12.230000   15.010000
  O     11.440000    7.380000    7.770000
  H     10.820000    6.660000    7.920000
  H     11.100000    7.890000    7.010000
  O     10.780000   10.360000    3.290000
  H     11.670000   10.010000    3.520000
  H     10.960000   11.330000    3.290000
  O      5.850000   13.540000   12.200000
  H      6.470000   13.800000   11.550000
  H      4.950000   13.850000   11.860000
  O     14.010000   13.150000    9.970000
  H     14.230000   12.280000    9.640000
  H     13.280000   13.380000    9.440000
  Q      5.860000    9.610000   17.490000
  Q      6.560000    9.170000   18.790000
  Q      6.500000    9.340000   17.970000
  Q     18.430000   18.810000    8.990000
  Q     19.730000   18.250000    8.400000
  Q     19.200000   18.490000    9.030000
  Q     15.900000    6.680000   13.240000
  Q     15.730000    7.210000   14.630000
  Q     15.880000    6.610000   14.090000
  Q     14.730000    5.110000    6.810000
  Q     14.930000    4.360000    8.090000
  Q     15.070000    4.530000    7.320000
  Q     15.180000    3.500000   15.240000
  Q     16.770000    3.220000   15.430000
  Q     15.950000    3.070000   15.170000
  Q      7.810000   19.220000    6.660000
  Q      9.270000   19.760000    6.620000
  Q      8.570000   19.460000    7.000000
  Q      9.340000    1.000000   13.930000
  Q     10.460000   -0.060000   14.400000
  Q      9.880000    0.620000   14.510000
  Q     17.820000    6.160000   14.440000
  Q     18.920000    5.760000   13.440000
  Q     18.590000    6.050000   14.170000
  Q     21.280000   13.700000    6.860000
  Q     20.460000   12.410000    7.170000
  Q     20.810000   13.010000    6.670000
  Q     20.220000    5.720000   11.450000
  Q     19.400000    4.470000   11.740000
  Q     19.470000    5.270000   11.610000
  Q     13.740000   19.070000    9.920000
  Q     14.840000   20.210000    9.920000
  Q     14.410000   19.520000   10.200000
  Q     18.520000   16.070000   11.900000
  Q     19.190000   14.870000   11.840000
  Q     18.520000   15.280000   11.990000
  Q      3.280000   11.150000   17.750000
  Q      4.570000   11.410000   18.650000
  Q      3.960000   10.950000   18.200000
  Q      5.700000   11.700000    3.220000
  Q      6.310000   11.610000    4.610000
  Q      6.290000   11.870000    3.790000
  Q      2.050000    3.780000   13.090000
  Q      1.790000    5.270000   12.520000
  Q      2.130000    4.640000   13.040000
  Q      5.000000   14.610000    6.400000
  Q      4.010000   14.100000    7.550000
  Q      4.750000   14.240000    7.150000
  Q      5.660000    2.820000    8.660000
  Q      5.830000    1.340000    9.030000
  Q      5.520000    2.120000    9.110000
  Q     11.910000    4.360000    4.920000
  Q     11.880000    3.040000    4.080000
  Q     11.610000    3.620000    4.630000
  Q     15.830000   18.490000   11.340000
  Q     15.220000   17.790000   12.490000
  Q     15.870000   18.080000   12.060000
  Q     17.210000   12.190000   12.010000
  Q     17.410000   13.520000   11.460000
  Q     16.990000   12.840000   11.530000
  Q      8.810000   16.670000   15.610000
  Q      9.700000   16.040000   14.510000
  Q      9.120000   16.580000   14.790000
  Q     22.580000   10.180000   13.990000
  Q     21.210000    9.680000   13.470000
  Q     21.780000   10.240000   13.740000
  Q     17.480000   20.890000   10.970000
  Q     17.200000   21.010000    9.490000
  Q     17.280000   20.610000   10.220000
  Q     14.420000    5.330000   14.590000
  Q     13.370000    4.760000   15.640000
  Q     13.820000    4.760000   14.920000
  Q      8.350000   15.690000    2.260000
  Q      8.520000   14.790000    3.470000
  Q      8.330000   15.520000    3.080000
  Q      5.530000    1.970000    5.030000
  Q      6.920000    2.610000    5.380000
  Q      6.350000    2.020000    5.240000
  Q      3.230000    5.150000    4.640000
  Q      4.530000    4.570000    4.180000
  Q      3.800000    4.540000    4.530000
  Q      9.140000    5.400000   11.620000
  Q      9.200000    6.040000   13.010000
  Q      9.430000    5.510000   12.400000
  Q      1.380000   12.610000   11.060000
  Q      0.630000   11.580000   11.920000
  Q      1.290000   11.920000   11.520000
  Q     10.280000   20.990000   10.510000
  Q      9.740000   19.480000   10.560000
  Q     10.030000   20.260000   10.860000
  Q     12.750000   16.500000    8.420000
  Q     12.930000   18.070000    8.290000
  Q     12.970000   17.290000    8.680000
  Q      9.120000   18.490000    8.870000
  Q      8.040000   18.260000    9.850000
  Q      8.860000   18.270000    9.640000
  Q     17.840000   18.260000   12.250000
  Q     18.850000   18.560000   11.040000
  Q     18.580000   18.250000   11.800000
  Q     16.170000   11.700000   14.280000
  Q     17.400000   10.860000   13.820000
  Q     16.590000   10.990000   14.120000
  Q     13.820000   19.750000    6.900000
  Q     12.270000   19.630000    6.940000
  Q     13.060000   19.540000    7.240000
  Q     17.030000    4.310000    6.900000
  Q     17.830000    4.060000    5.600000
  Q     17.680000    4.420000    6.350000
  Q      4.720000    5.880000   11.420000
  Q      5.140000    4.580000   10.800000
  Q      4.820000    5.340000   10.800000
  Q     18.100000   14.350000   15.850000
  Q     19.310000   13.370000   16.130000
  Q     18.560000   13.780000   16.290000
  Q     17.340000    9.670000   10.050000
  Q     18.630000    9.750000   11.020000
  Q     18.190000    9.620000   10.300000
  Q      7.580000   15.680000    8.050000
  Q      6.120000   15.120000    8.260000
  Q      6.880000   15.500000    8.480000
  Q      6.260000   17.960000   14.050000
  Q      7.540000   17.250000   13.970000
  Q      6.850000   17.600000   13.650000
  Q     18.890000   12.580000    8.730000
  Q     18.920000   11.020000    9.010000
  Q     19.240000   11.790000    8.810000
  Q     13.280000   18.380000   14.570000
  Q     12.870000   18.440000   16.070000
  Q     13.340000   18.610000   15.360000
  Q     17.920000   13.440000   19.570000
  Q     17.820000   14.420000   18.390000
  Q     17.620000   14.090000   19.140000
  Q     13.070000    3.280000    8.940000
  Q     11.980000    2.360000    9.420000
  Q     12.280000    2.990000    8.960000
  Q      7.900000    5.170000    5.350000
  Q      7.240000    4.560000    6.570000
  Q      7.710000    4.530000    5.900000
  Q      8.960000   13.300000    5.020000
  Q      8.020000   12.720000    3.860000
  Q      8.680000   13.160000    4.250000
  Q     16.160000   14.530000   20.580000
  Q     14.840000   14.830000   21.410000
  Q     15.670000   14.590000   21.280000
  Q     13.810000    7.500000   17.600000
  Q     13.990000    8.370000   16.320000
  Q     13.580000    7.820000   16.820000
  Q      7.700000    6.110000    9.510000
  Q      8.900000    5.160000    9.380000
  Q      8.250000    5.550000    9.790000
  Q      4.570000   17.400000   15.580000
  Q      5.170000   18.600000   16.190000
  Q      5.030000   18.110000   15.550000
  Q      8.660000    1.920000   15.910000
  Q      8.100000    3.300000   16.540000
  Q      8.670000    2.640000   16.380000
  Q     10.320000    4.750000   14.450000
  Q      9.820000    3.990000   15.660000
  Q     10.150000    4.630000   15.270000
  Q     14.740000    7.160000    9.190000
  Q     15.880000    6.790000   10.190000
  Q     15.470000    6.810000    9.450000
  Q     16.660000   10.720000   19.630000
  Q     16.880000   11.220000   21.150000
  Q     17.070000   11.030000   20.320000
  Q     20.900000   13.870000   14.190000
  Q     20.430000   15.320000   13.700000
  Q     20.650000   14.490000   13.640000
  Q      1.210000   14.250000   14.790000
  Q      2.370000   14.430000   13.810000
  Q      1.750000   14.710000   14.340000
  Q      9.120000    9.820000    2.190000
  Q      7.950000   10.660000    1.720000
  Q      8.360000    9.940000    1.860000
  Q      6.170000    4.110000   15.410000
  Q      6.490000    4.830000   16.740000
  Q      6.350000    4.160000   16.240000
  Q      4.150000    7.990000   19.620000
  Q      3.720000    6.710000   18.990000
  Q      4.170000    7.430000   19.030000
  Q     18.110000   14.440000    7.510000
  Q     17.660000   14.450000    9.060000
  Q     18.160000   14.360000    8.390000
  Q     12.690000   17.070000   12.500000
  Q     13.260000   16.410000   13.820000
  Q     13.270000   16.940000   13.110000
  Q     13.470000    8.090000    3.460000
  Q     13.610000    9.350000    2.640000
  Q     13.200000    8.780000    3.100000
  Q      5.780000    2.790000    2.990000
  Q      6.970000    3.680000    3.530000
  Q      6.190000    3.530000    3.180000
  Q     19.900000   17.640000   13.490000
  Q     21.190000   17.370000   14.260000
  Q     20.350000   17.310000   14.110000
  Q     13.600000    4.560000   10.420000
  Q     14.750000    5.200000    9.800000
  Q     14.250000    4.520000    9.950000
  Q     21.950000   12.710000   16.250000
  Q     21.510000   14.130000   16.750000
  Q     21.540000   13.470000   16.180000
  Q     14.110000   13.820000    6.620000
  Q     13.720000   12.880000    5.580000
  Q     13.720000   13.180000    6.350000
  Q      7.060000    7.380000   15.380000
  Q      5.900000    7.500000   16.530000
  Q      6.230000    7.370000   15.710000
  Q      3.780000   15.710000   11.940000
  Q      2.390000   14.890000   11.630000
  Q      3.240000   15.020000   11.830000
  Q     16.290000   11.660000    6.640000
  Q     15.780000   10.940000    7.930000
  Q     16.260000   11.030000    7.210000
  Q      5.140000   16.170000   18.810000
  Q      5.100000   15.510000   17.510000
  Q      5.490000   15.830000   18.140000
  Q      7.980000    7.980000    2.060000
  Q      9.210000    7.280000    1.600000
  Q      8.460000    7.320000    1.980000
  Q     10.630000    6.180000   19.860000
  Q     10.790000    7.220000   18.750000
  Q     10.940000    6.510000   19.170000
  Q     15.610000    4.990000   19.030000
  Q     14.430000    5.150000   17.970000
  Q     15.130000    5.380000   18.420000
  Q      5.680000    5.150000    8.800000
  Q      5.040000    4.690000    7.490000
  Q      5.640000    4.750000    8.050000
  Q      5.820000   18.650000    9.440000
  Q      6.290000   17.140000    9.510000
  Q      6.260000   17.990000    9.740000
  Q     12.280000   16.840000   10.450000
  Q     10.960000   17.470000   10.580000
  Q     11.650000   17.110000   10.870000
  Q     11.830000   13.140000   19.210000
  Q     12.240000   14.330000   20.160000
  Q     11.740000   13.680000   19.890000
  Q      8.140000   12.280000   -0.150000
  Q      9.000000   12.780000    0.890000
  Q      8.260000   12.640000    0.590000
  Q     14.650000    2.610000    6.180000
  Q     13.940000    1.410000    6.140000
  Q     14.630000    1.830000    6.080000
  Q      4.570000   14.820000   15.550000
  Q      3.130000   15.140000   15.780000
  Q      3.940000   15.120000   16.010000
  Q     19.870000   16.750000   10.040000
  Q     19.440000   15.410000    9.420000
  Q     19.920000   15.910000    9.900000
  Q     11.210000    5.110000   -0.210000
  Q     10.660000    6.200000    0.620000
  Q     10.590000    5.500000    0.160000
  Q     18.660000   15.140000    5.090000
  Q     17.470000   15.880000    5.630000
  Q     17.960000   15.220000    5.540000
  Q     15.970000    3.180000   10.610000
  Q     17.320000    2.430000   10.550000
  Q     16.480000    2.510000   10.510000
  Q     20.940000   13.230000   10.980000
  Q     20.230000   12.100000   10.180000
  Q     20.470000   12.530000   10.890000
  Q      5.920000   14.160000    3.010000
  Q      5.720000   15.640000    2.890000
  Q      5.540000   14.800000    2.780000
  Q      3.800000   12.320000    5.160000
  Q      2.310000   11.880000    5.060000
  Q      2.960000   12.410000    5.210000
  Q      9.030000   11.410000   19.540000
  Q      9.510000   10.700000   20.790000
  Q      8.940000   11.110000   20.300000
  Q      3.330000   15.770000   10.010000
  Q      2.260000   16.840000   10.100000
  Q      2.940000   16.440000    9.720000
  Q      5.130000    3.290000   13.150000
  Q      6.450000    3.920000   13.160000
  Q      5.680000    3.790000   13.460000
  Q      7.630000   14.460000   16.780000
  Q      6.840000   13.700000   15.660000
  Q      7.520000   13.900000   16.150000
  Q     20.050000    8.420000   16.200000
  Q     19.250000    7.070000   16.260000
  Q     19.940000    7.600000   16.310000
  Q     16.050000    9.030000   19.650000
  Q     16.030000    9.370000   18.110000
  Q     15.720000    9.110000   18.870000
  Q     -0.230000   15.260000   10.690000
  Q      0.280000   14.730000   12.140000
  Q      0.310000   14.890000   11.270000
  Q     18.170000   18.250000    6.180000
  Q     16.720000   18.150000    6.790000
  Q     17.320000   18.130000    6.150000
  Q      3.430000    6.970000    7.530000
  Q      4.980000    6.940000    7.820000
  Q      4.260000    7.040000    7.330000
  Q      9.720000    3.990000    2.910000
  Q      9.050000    4.720000    1.890000
  Q      9.060000    4.170000    2.460000
  Q     14.090000   14.180000    3.210000
  Q     12.870000   13.090000    3.310000
  Q     13.690000   13.390000    3.370000
  Q     15.200000    7.520000    5.630000
  Q     16.020000    6.390000    5.200000
  Q     15.340000    6.840000    5.160000
  Q     12.790000   15.900000    1.980000
  Q     11.840000   16.110000    3.100000
  Q     12.080000   15.830000    2.380000
  Q      8.200000   11.930000   16.930000
  Q      7.890000   10.580000   17.670000
  Q      8.370000   11.180000   17.360000
  Q     19.110000   17.340000   16.010000
  Q     17.870000   17.110000   16.940000
  Q     18.690000   17.250000   16.740000
  Q     11.930000   20.960000   13.240000
  Q     12.270000   20.630000   14.680000
  Q     11.730000   20.770000   14.060000
  Q      2.600000   12.550000    7.050000
  Q      3.140000   12.470000    8.470000
  Q      2.620000   12.760000    7.870000
  Q     17.160000   16.400000   14.930000
  Q     17.500000   15.460000   13.730000
  Q     17.220000   15.660000   14.510000
  Q     12.050000    1.690000    7.190000
  Q     11.810000    2.190000    5.790000
  Q     11.970000    1.580000    6.380000
  Q      3.790000   11.430000    2.120000
  Q      4.240000    9.990000    2.430000
  Q      4.340000   10.790000    2.140000
  Q      2.100000    5.490000    8.480000
  Q      3.070000    6.060000    9.580000
  Q      2.480000    6.100000    8.960000
  Q      5.280000   17.660000   12.180000
  Q      3.930000   18.110000   11.410000
  Q      4.400000   17.690000   12.030000
  Q     15.150000   16.040000    7.470000
  Q     14.740000   16.260000    6.030000
  Q     14.810000   15.850000    6.740000
  Q     14.320000   12.880000   17.580000
  Q     15.440000   13.510000   18.230000
  Q     15.110000   13.090000   17.630000
  Q      0.920000    6.450000   10.740000
  Q      0.520000    5.000000   11.020000
  Q      0.560000    5.810000   11.170000
  Q     19.260000   11.480000   19.400000
  Q     19.320000   12.220000   18.060000
  Q     19.520000   12.120000   18.890000
  Q     13.120000   15.420000   16.890000
  Q     13.720000   16.050000   18.120000
  Q     13.090000   15.810000   17.630000
  Q      2.560000    3.230000    7.810000
  Q      2.930000    3.910000    6.340000
  Q      2.670000    3.880000    7.180000
  Q     12.170000   12.010000   17.150000
  Q     12.630000   11.150000   18.280000
  Q     12.490000   11.880000   17.900000
  Q      7.770000    4.020000   10.620000
  Q      6.620000    2.800000   10.530000
  Q      7.240000    3.340000   10.900000
  Q     15.320000   13.550000   15.570000
  Q     16.020000   14.290000   14.430000
  Q     15.460000   13.740000   14.750000
  Q     15.530000    2.170000   13.460000
  Q     15.330000    1.770000   11.980000
  Q     15.260000    1.650000   12.800000
  Q     11.980000    0.220000   10.940000
  Q     11.010000    1.310000   11.330000
  Q     11.370000    0.770000   10.780000
  Q     12.230000    4.850000   17.950000
  Q     12.390000    3.800000   16.850000
  Q     12.640000    4.340000   17.430000
  Q     15.770000   17.710000    4.790000
  Q     14.390000   18.020000    3.950000
  Q     14.940000   17.610000    4.480000
  Q     16.350000   19.000000   16.000000
  Q     15.240000   18.060000   15.680000
  Q     15.980000   18.260000   15.980000
  Q     11.110000   14.140000    2.360000
  Q     10.040000   13.270000    2.970000
  Q     10.740000   13.400000    2.550000
  Q     14.040000    9.930000    0.380000
  Q     13.570000    8.620000   -0.190000
  Q     14.040000    9.110000    0.310000
  Q     19.180000   10.250000   12.930000
  Q     19.240000   11.650000   12.280000
  Q     18.840000   10.970000   12.640000
  Q     20.440000   10.750000   15.600000
  Q     20.280000   10.440000   17.240000
  Q     20.030000   10.530000   16.370000
  Q     19.100000    6.970000    5.320000
  Q     17.980000    7.840000    6.080000
  Q     18.400000    7.470000    5.390000
  Q     12.110000    9.240000   18.700000
  Q     13.530000    9.420000   19.000000
  Q     12.740000    9.590000   19.120000
  Q      8.350000    2.060000   11.920000
  Q      8.550000    0.550000   12.090000
  Q      8.760000    1.360000   12.230000
  Q      5.250000    7.660000    5.840000
  Q      5.220000    8.010000    4.340000
  Q      5.530000    8.020000    5.130000
  Q      0.460000    9.850000    9.960000
  Q      0.680000    9.020000   11.220000
  Q      0.230000    9.380000   10.600000
  Q      1.930000    8.360000    8.620000
  Q      1.910000    9.540000    7.650000
  Q      1.970000    9.160000    8.420000
  Q      2.780000    6.220000   14.560000
  Q      2.680000    6.050000   15.920000
  Q      2.510000    6.460000   15.280000
  Q     13.290000   20.430000   18.710000
  Q     13.290000   18.810000   18.850000
  Q     13.500000   19.650000   19.050000
  Q     10.240000   16.450000   19.940000
  Q     10.420000   14.950000   19.640000
  Q      9.990000   15.680000   19.730000
  Q     17.910000   11.010000   16.770000
  Q     16.610000   11.540000   17.370000
  Q     17.260000   10.970000   17.300000
  Q      9.320000    6.100000   16.120000
  Q      8.240000    6.770000   16.940000
  Q      8.860000    6.760000   16.360000
  Q      2.680000    9.290000   13.050000
  Q      2.310000    8.450000   14.380000
  Q      2.450000    9.150000   13.870000
  Q      8.720000   16.520000   18.270000
  Q      7.320000   16.640000   17.670000
  Q      8.150000   16.780000   17.700000
  Q     11.780000    9.950000   20.660000
  Q     11.460000   10.710000   21.940000
  Q     11.280000   10.190000   21.300000
  Q     13.430000    6.140000    5.490000
  Q     12.110000    5.850000    6.460000
  Q     12.750000    5.740000    5.830000
  Q     17.720000    6.860000   11.420000
  Q     16.780000    7.980000   11.880000
  Q     16.970000    7.170000   11.650000
  Q      7.460000   19.320000   12.260000
  Q      8.370000   20.330000   12.230000
  Q      7.610000   20.090000   12.120000
  Q     16.530000    6.440000   17.370000
  Q     17.740000    7.080000   18.060000
  Q     17.290000    6.800000   17.390000
  Q     12.870000    6.630000   20.020000
  Q     14.360000    6.720000   19.650000
  Q     13.680000    6.860000   20.100000
  Q     13.470000   20.340000   11.450000
  Q     13.970000   21.340000   12.580000
  Q     13.410000   21.010000   12.030000
  Q     19.450000    7.720000   13.780000
  Q     19.970000    7.860000   12.350000
  Q     19.650000    8.140000   13.070000
  Q     15.460000   17.260000   17.870000
  Q     15.390000   16.930000   19.490000
  Q     15.270000   16.810000   18.610000
  Q     10.780000   16.040000    5.510000
  Q      9.780000   16.340000    4.410000
  Q     10.520000   16.380000    4.770000
  Q     15.200000   10.400000   10.600000
  Q     15.990000   11.710000   10.320000
  Q     15.600000   10.970000   10.130000
  Q     10.810000   17.900000   17.280000
  Q     12.000000   17.160000   17.980000
  Q     11.490000   17.830000   17.780000
  Q     16.020000    9.580000   15.320000
  Q     16.560000    8.330000   16.220000
  Q     15.990000    8.820000   15.720000
  Q     10.060000    8.080000   17.120000
  Q      9.660000    9.360000   17.850000
  Q     10.200000    8.790000   17.590000
  Q      3.440000    7.490000    3.160000
  Q      4.490000    7.890000    2.130000
  Q      3.990000    7.990000    2.800000
  Q     15.290000    9.480000    6.800000
  Q     13.850000    9.090000    7.130000
  Q     14.640000    8.960000    6.840000
  Q      7.190000   10.250000   20.610000
  Q      6.510000    9.060000   21.390000
  Q      6.590000    9.670000   20.780000
  Q     19.700000    6.590000    7.850000
  Q     19.240000    5.470000    6.970000
  Q     19.810000    5.980000    7.320000
  Q     15.460000   10.830000    3.920000
  Q     16.320000    9.970000    3.000000
  Q     15.620000   10.410000    3.210000
  Q     12.790000    4.450000   12.940000
  Q     11.400000    5.000000   12.390000
  Q     12.220000    4.740000   12.360000
  Q      5.460000   13.460000   20.510000
  Q      5.640000   13.990000   19.110000
  Q      5.490000   13.390000   19.670000
  Q     10.820000    8.660000    0.400000
  Q     11.650000    8.190000    1.620000
  Q     11.030000    8.120000    1.050000
  Q     13.650000   12.350000   22.340000
  Q     13.390000   11.930000   20.860000
  Q     13.540000   11.820000   21.700000
  Q     15.790000   12.980000    3.900000
  Q     17.000000   13.370000    4.820000
  Q     16.460000   12.840000    4.420000
  Q      9.980000    4.410000    6.800000
  Q     10.740000    4.000000    8.030000
  Q     10.310000    4.580000    7.530000
  Q     17.270000    9.220000    7.580000
  Q     16.670000    7.790000    7.840000
  Q     17.240000    8.370000    7.570000
  Q      7.450000    5.660000   19.130000
  Q      6.190000    6.550000   18.780000
  Q      6.850000    6.020000   18.620000
  Q     15.550000   14.580000   10.050000
  Q     15.920000   15.990000   10.720000
  Q     15.850000   15.410000   10.100000
  Q     15.550000   18.110000    8.890000
  Q     16.560000   17.030000    8.800000
  Q     16.200000   17.700000    8.530000
  Q     19.450000    8.660000    8.890000
  Q     20.940000    8.490000    9.140000
  Q     20.220000    8.380000    8.710000
  Q      8.090000   15.960000    5.590000
  Q      8.140000   14.710000    6.350000
  Q      8.370000   15.470000    6.200000

----------------------------
CARTESIAN COORDINATES (A.U.)
----------------------------
  NO LB      ZA    FRAG     MASS         X           Y           Z
   0 C     6.0000    0    12.011   23.035762   22.204282   24.188495
   1 H     1.0000    0     1.008   24.849899   21.448392   25.076666
   2 H     1.0000    0     1.008   21.372803   22.336563   25.379022
   3 C     6.0000    0    12.011   22.317666   20.560220   21.939720
   4 H     1.0000    0     1.008   22.941275   21.410597   20.238967
   5 H     1.0000    0     1.008   23.300323   18.727186   21.920823
   6 C     6.0000    0    12.011   19.388590   20.068892   21.788542
   7 H     1.0000    0     1.008   18.254754   21.731851   22.185385
   8 H     1.0000    0     1.008   18.878364   18.727186   23.338118
   9 C     6.0000    0    12.011   18.387035   18.632700   19.558665
  10 H     1.0000    0     1.008   16.440617   18.481522   19.766535
  11 H     1.0000    0     1.008   19.048439   16.686282   19.728741
  12 O     8.0000    0    15.999   19.105131   19.728741   17.158713
  13 H     1.0000    0     1.008   18.330343   18.576008   15.911494
  14 O     8.0000    0    15.999   23.545988   24.604234   23.168042
  15 H     1.0000    0     1.008   24.849899   24.604234   21.864131
  16 O     8.0000    0    15.999   13.284775   20.446837   24.585337
  17 H     1.0000    0     1.008   12.925727   22.185385   24.301878
  18 H     1.0000    0     1.008   12.132042   19.804330   25.870351
  19 O     8.0000    0    15.999   15.155604   18.009090   13.889487
  20 H     1.0000    0     1.008   16.308337   17.498864   12.566679
  21 H     1.0000    0     1.008   14.286330   19.313001   13.058008
  22 O     8.0000    0    15.999   19.010645   16.799665   10.582466
  23 H     1.0000    0     1.008   18.311446   15.401268    9.637603
  24 H     1.0000    0     1.008   19.634255   18.046885    9.354144
  25 O     8.0000    0    15.999   18.972850   25.019974   16.969741
  26 H     1.0000    0     1.008   17.687837   25.643584   18.103576
  27 H     1.0000    0     1.008   19.161823   23.205837   17.120919
  28 O     8.0000    0    15.999   10.979309   16.535104   21.146035
  29 H     1.0000    0     1.008   11.413946   18.235857   21.939720
  30 H     1.0000    0     1.008   11.602918   15.306782   22.393255
  31 O     8.0000    0    15.999    8.636048   20.068892   16.535104
  32 H     1.0000    0     1.008    9.845473   18.859467   17.120919
  33 H     1.0000    0     1.008    7.180959   19.010645   16.157158
  34 O     8.0000    0    15.999   28.988399   17.668939   23.168042
  35 H     1.0000    0     1.008   29.347447   18.916159   24.547542
  36 H     1.0000    0     1.008   27.797871   16.383926   23.734960
  37 O     8.0000    0    15.999   25.303433   14.305227   24.415262
  38 H     1.0000    0     1.008   24.925488   12.566679   24.471953
  39 H     1.0000    0     1.008   24.037316   15.042220   25.511303
  40 O     8.0000    0    15.999   24.849899   15.174501   18.424830
  41 H     1.0000    0     1.008   23.432604   14.683172   17.253200
  42 H     1.0000    0     1.008   24.660926   14.796556   20.087789
  43 O     8.0000    0    15.999   12.358809   14.475302   16.969741
  44 H     1.0000    0     1.008   12.869035   15.798110   15.892597
  45 H     1.0000    0     1.008   11.943069   15.439063   18.462624
  46 O     8.0000    0    15.999    9.467528   18.746083   28.251406
  47 H     1.0000    0     1.008    7.672288   18.594905   27.797871
  48 H     1.0000    0     1.008    9.883268   17.026432   28.799426
  49 O     8.0000    0    15.999   19.596460   27.571104   22.053104
  50 H     1.0000    0     1.008   21.051549   26.626241   22.525536
  51 H     1.0000    0     1.008   20.163378   29.328550   21.637364
  52 O     8.0000    0    15.999   10.771439   20.220070   11.489535
  53 H     1.0000    0     1.008   10.185624   20.125583   13.265877
  54 H     1.0000    0     1.008   10.658055   18.500419   10.884823
  55 O     8.0000    0    15.999   24.112905   28.421481   28.421481
  56 H     1.0000    0     1.008   22.676714   27.325440   28.270303
  57 H     1.0000    0     1.008   25.360125   27.401029   27.571104
  58 O     8.0000    0    15.999   20.314556   21.958618   29.366344
  59 H     1.0000    0     1.008   19.086234   21.202727   30.537974
  60 H     1.0000    0     1.008   19.653152   23.451501   28.629351
  61 O     8.0000    0    15.999   19.124028   26.777419   27.778974
  62 H     1.0000    0     1.008   19.180720   26.493960   25.945940
  63 H     1.0000    0     1.008   17.253200   26.796317   28.175817
  64 O     8.0000    0    15.999   15.250090   12.717857    8.768329
  65 H     1.0000    0     1.008   15.741419   13.039110    7.010884
  66 H     1.0000    0     1.008   14.059562   14.002871    9.373042
  67 O     8.0000    0    15.999   22.676714   28.024639   15.382371
  68 H     1.0000    0     1.008   23.527090   26.947495   14.172946
  69 H     1.0000    0     1.008   21.372803   27.023084   16.100467
  70 O     8.0000    0    15.999   14.361919   24.415262   12.547782
  71 H     1.0000    0     1.008   15.439063   24.245186   14.040665
  72 H     1.0000    0     1.008   12.698960   24.245186   13.058008
  73 O     8.0000    0    15.999   21.883029   16.365028   27.873460
  74 H     1.0000    0     1.008   21.599570   17.914604   28.686043
  75 H     1.0000    0     1.008   22.733405   15.439063   29.271858
  76 O     8.0000    0    15.999   16.005980   14.664275   25.927043
  77 H     1.0000    0     1.008   15.949289   16.402823   25.473508
  78 H     1.0000    0     1.008   16.724076   14.607583   27.627796
  79 O     8.0000    0    15.999    9.240761   12.302117   24.717618
  80 H     1.0000    0     1.008   10.147829   12.869035   26.248296
  81 H     1.0000    0     1.008    9.051788   10.544672   25.246741
  82 O     8.0000    0    15.999    5.461309   16.572898   21.372803
  83 H     1.0000    0     1.008    7.351035   16.535104   21.353905
  84 H     1.0000    0     1.008    5.140055   17.574453   19.955508
  85 O     8.0000    0    15.999   14.947734   26.512858   20.031097
  86 H     1.0000    0     1.008   14.324124   27.760077   18.783878
  87 H     1.0000    0     1.008   16.270542   27.419926   20.919268
  88 O     8.0000    0    15.999   24.453056   20.805885   15.231193
  89 H     1.0000    0     1.008   24.396364   22.090899   13.908384
  90 H     1.0000    0     1.008   22.790097   20.390145   15.760316
  91 O     8.0000    0    15.999    9.939959   24.736515   27.949050
  92 H     1.0000    0     1.008   10.242316   24.509748   26.116015
  93 H     1.0000    0     1.008    9.202966   23.111351   28.364789
  94 O     8.0000    0    15.999   21.618467   13.946179   14.683172
  95 H     1.0000    0     1.008   20.446837   12.585576   14.966631
  96 H     1.0000    0     1.008   20.975960   14.909939   13.246980
  97 O     8.0000    0    15.999   20.371248   19.577563    6.217199
  98 H     1.0000    0     1.008   22.053104   18.916159    6.651836
  99 H     1.0000    0     1.008   20.711398   21.410597    6.217199
 100 O     8.0000    0    15.999   11.054898   25.586892   23.054659
 101 H     1.0000    0     1.008   12.226528   26.078221   21.826337
 102 H     1.0000    0     1.008    9.354144   26.172707   22.412152
 103 O     8.0000    0    15.999   26.475063   24.849899   18.840570
 104 H     1.0000    0     1.008   26.890803   23.205837   18.216960
 105 H     1.0000    0     1.008   25.095563   25.284536   17.839015
 106 Q     0.6645    0     0.000   11.073795   18.160268   33.051310
 107 Q     0.6645    0     0.000   12.396603   17.328789   35.507954
 108 Q    -1.3290    0     0.000   12.283220   17.650042   33.958379
 109 Q     0.6645    0     0.000   34.827653   35.545749   16.988638
 110 Q     0.6645    0     0.000   37.284297   34.487502   15.873700
 111 Q    -1.3290    0     0.000   36.282742   34.941036   17.064227
 112 Q     0.6645    0     0.000   30.046646   12.623371   25.019974
 113 Q     0.6645    0     0.000   29.725392   13.624925   27.646693
 114 Q    -1.3290    0     0.000   30.008851   12.491090   26.626241
 115 Q     0.6645    0     0.000   27.835666    9.656501   12.869035
 116 Q     0.6645    0     0.000   28.213611    8.239206   15.287884
 117 Q    -1.3290    0     0.000   28.478173    8.560459   13.832795
 118 Q     0.6645    0     0.000   28.686043    6.614041   28.799426
 119 Q     0.6645    0     0.000   31.690707    6.084918   29.158474
 120 Q    -1.3290    0     0.000   30.141132    5.801459   28.667145
 121 Q     0.6645    0     0.000   14.758761   36.320536   12.585576
 122 Q     0.6645    0     0.000   17.517761   37.340988   12.509987
 123 Q    -1.3290    0     0.000   16.194953   36.774071   13.228083
 124 Q     0.6645    0     0.000   17.650042    1.889726   26.323885
 125 Q     0.6645    0     0.000   19.766535   -0.113384   27.212056
 126 Q    -1.3290    0     0.000   18.670494    1.171630   27.419926
 127 Q     0.6645    0     0.000   33.674920   11.640713   27.287645
 128 Q     0.6645    0     0.000   35.753618   10.884823   25.397919
 129 Q    -1.3290    0     0.000   35.130009   11.432843   26.777419
 130 Q     0.6645    0     0.000   40.213372   25.889248   12.963521
 131 Q     0.6645    0     0.000   38.663797   23.451501   13.549336
 132 Q    -1.3290    0     0.000   39.325201   24.585337   12.604473
 133 Q     0.6645    0     0.000   38.210262   10.809233   21.637364
 134 Q     0.6645    0     0.000   36.660687    8.447076   22.185385
 135 Q    -1.3290    0     0.000   36.792968    9.958857   21.939720
 136 Q     0.6645    0     0.000   25.964837   36.037077   18.746083
 137 Q     0.6645    0     0.000   28.043536   38.191365   18.746083
 138 Q    -1.3290    0     0.000   27.230954   36.887454   19.275207
 139 Q     0.6645    0     0.000   34.997728   30.367899   22.487741
 140 Q     0.6645    0     0.000   36.263845   28.100228   22.374357
 141 Q    -1.3290    0     0.000   34.997728   28.875015   22.657816
 142 Q     0.6645    0     0.000    6.198302   21.070446   33.542639
 143 Q     0.6645    0     0.000    8.636048   21.561775   35.243392
 144 Q    -1.3290    0     0.000    7.483315   20.692501   34.393016
 145 Q     0.6645    0     0.000   10.771439   22.109796    6.084918
 146 Q     0.6645    0     0.000   11.924172   21.939720    8.711637
 147 Q    -1.3290    0     0.000   11.886377   22.431049    7.162062
 148 Q     0.6645    0     0.000    3.873939    7.143165   24.736515
 149 Q     0.6645    0     0.000    3.382610    9.958857   23.659371
 150 Q    -1.3290    0     0.000    4.025117    8.768329   24.642029
 151 Q     0.6645    0     0.000    9.448631   27.608899   12.094247
 152 Q     0.6645    0     0.000    7.577802   26.645138   14.267432
 153 Q    -1.3290    0     0.000    8.976199   26.909700   13.511542
 154 Q     0.6645    0     0.000   10.695850    5.329028   16.365028
 155 Q     0.6645    0     0.000   11.017103    2.532233   17.064227
 156 Q    -1.3290    0     0.000   10.431288    4.006219   17.215405
 157 Q     0.6645    0     0.000   22.506638    8.239206    9.297453
 158 Q     0.6645    0     0.000   22.449946    5.744767    7.710083
 159 Q    -1.3290    0     0.000   21.939720    6.840809    8.749432
 160 Q     0.6645    0     0.000   29.914365   34.941036   21.429494
 161 Q     0.6645    0     0.000   28.761632   33.618228   23.602679
 162 Q    -1.3290    0     0.000   29.989954   34.166249   22.790097
 163 Q     0.6645    0     0.000   32.522187   23.035762   22.695611
 164 Q     0.6645    0     0.000   32.900132   25.549097   21.656261
 165 Q    -1.3290    0     0.000   32.106447   24.264084   21.788542
 166 Q     0.6645    0     0.000   16.648487   31.501735   29.498625
 167 Q     0.6645    0     0.000   18.330343   30.311207   27.419926
 168 Q    -1.3290    0     0.000   17.234302   31.331659   27.949050
 169 Q     0.6645    0     0.000   42.670016   19.237412   26.437269
 170 Q     0.6645    0     0.000   40.081091   18.292549   25.454611
 171 Q    -1.3290    0     0.000   41.158235   19.350796   25.964837
 172 Q     0.6645    0     0.000   33.032413   39.476379   20.730296
 173 Q     0.6645    0     0.000   32.503290   39.703146   17.933501
 174 Q    -1.3290    0     0.000   32.654468   38.947256   19.313001
 175 Q     0.6645    0     0.000   27.249851   10.072240   27.571104
 176 Q     0.6645    0     0.000   25.265638    8.995096   29.555317
 177 Q    -1.3290    0     0.000   26.116015    8.995096   28.194714
 178 Q     0.6645    0     0.000   15.779213   29.649803    4.270781
 179 Q     0.6645    0     0.000   16.100467   27.949050    6.557350
 180 Q    -1.3290    0     0.000   15.741419   29.328550    5.820356
 181 Q     0.6645    0     0.000   10.450186    3.722760    9.505322
 182 Q     0.6645    0     0.000   13.076905    4.932185   10.166727
 183 Q    -1.3290    0     0.000   11.999761    3.817247    9.902165
 184 Q     0.6645    0     0.000    6.103815    9.732090    8.768329
 185 Q     0.6645    0     0.000    8.560459    8.636048    7.899055
 186 Q    -1.3290    0     0.000    7.180959    8.579357    8.560459
 187 Q     0.6645    0     0.000   17.272097   10.204521   21.958618
 188 Q     0.6645    0     0.000   17.385480   11.413946   24.585337
 189 Q    -1.3290    0     0.000   17.820117   10.412391   23.432604
 190 Q     0.6645    0     0.000    2.607822   23.829447   20.900371
 191 Q     0.6645    0     0.000    1.190527   21.883029   22.525536
 192 Q    -1.3290    0     0.000    2.437747   22.525536   21.769645
 193 Q     0.6645    0     0.000   19.426385   39.665352   19.861022
 194 Q     0.6645    0     0.000   18.405933   36.811865   19.955508
 195 Q    -1.3290    0     0.000   18.953953   38.285851   20.522426
 196 Q     0.6645    0     0.000   24.094008   31.180481   15.911494
 197 Q     0.6645    0     0.000   24.434159   34.147351   15.665830
 198 Q    -1.3290    0     0.000   24.509748   32.673365   16.402823
 199 Q     0.6645    0     0.000   17.234302   34.941036   16.761871
 200 Q     0.6645    0     0.000   15.193398   34.506399   18.613802
 201 Q    -1.3290    0     0.000   16.742974   34.525296   18.216960
 202 Q     0.6645    0     0.000   33.712714   34.506399   23.149145
 203 Q     0.6645    0     0.000   35.621338   35.073317   20.862577
 204 Q    -1.3290    0     0.000   35.111112   34.487502   22.298768
 205 Q     0.6645    0     0.000   30.556872   22.109796   26.985289
 206 Q     0.6645    0     0.000   32.881235   20.522426   26.116015
 207 Q    -1.3290    0     0.000   31.350557   20.768090   26.682933
 208 Q     0.6645    0     0.000   26.116015   37.322091   13.039110
 209 Q     0.6645    0     0.000   23.186940   37.095324   13.114699
 210 Q    -1.3290    0     0.000   24.679823   36.925249   13.681617
 211 Q     0.6645    0     0.000   32.182036    8.144720   13.039110
 212 Q     0.6645    0     0.000   33.693817    7.672288   10.582466
 213 Q    -1.3290    0     0.000   33.410358    8.352590   11.999761
[...]
 335   Q   :   -0.158432178    0.219959261   -0.119499506
 336   Q   :   -0.001531781   -0.239770658   -0.074792679
 337   Q   :    0.139383417    0.026523739    0.198942866
 338   Q   :    0.236149509   -0.109865635   -0.161655089
 339   Q   :   -0.237600807    0.119880053   -0.117339842
 340   Q   :   -0.000537922   -0.004432709    0.278588491
 341   Q   :    0.036307255   -0.144395365   -0.199549307
 342   Q   :    0.173995840    0.215196948    0.080143342
 343   Q   :   -0.209210092   -0.073697933    0.133386132
 344   Q   :   -0.016327562   -0.134381857   -0.271249406
 345   Q   :    0.298724471    0.042761725    0.097285164
 346   Q   :   -0.287330442    0.094967700    0.169788080
 347   Q   :   -0.020733648    0.332966500    0.040896749
 348   Q   :   -0.269884541   -0.140649521    0.027107054
 349   Q   :    0.298134864   -0.195617476   -0.070383722
 350   Q   :    0.211007921   -0.094821425   -0.164025618
 351   Q   :   -0.267386011    0.000615909   -0.083317905
 352   Q   :    0.050307096    0.094383908    0.248149633
 353   Q   :   -0.026633822    0.277766929    0.039056070
 354   Q   :   -0.169961742   -0.150137291   -0.162574847
 355   Q   :    0.204761045   -0.124801733    0.129605495
 356   Q   :    0.254985515   -0.133822588   -0.134492505
 357   Q   :    0.039364728    0.232131492    0.158487445
 358   Q   :   -0.297737710   -0.109198999   -0.027994552
 359   Q   :    0.244829240   -0.007414301   -0.166061944
 360   Q   :   -0.167013076    0.247346436    0.020373301
 361   Q   :   -0.075664561   -0.234537603    0.138345729
 362   Q   :   -0.154718410    0.233711188    0.047492859
 363   Q   :    0.299680998   -0.009054172    0.022632649
 364   Q   :   -0.132710630   -0.226453969   -0.073170628
 365   Q   :    0.162787375    0.241366087    0.013575550
 366   Q   :   -0.057270785   -0.122808298   -0.208825408
 367   Q   :   -0.084814283   -0.111484228    0.203095588
 368   Q   :    0.184060144   -0.274823610    0.116084843
 369   Q   :    0.069130328    0.267630367    0.046828105
 370   Q   :   -0.255268477    0.010858115   -0.163582683
 371   Q   :    0.281581895   -0.048756701   -0.019330120
 372   Q   :   -0.210981252   -0.197093560   -0.047455041
 373   Q   :   -0.069256882    0.250878248    0.054138879
 374   Q   :    0.047483500    0.101393708   -0.285262302
 375   Q   :    0.171999639   -0.131155288    0.142265623
 376   Q   :   -0.220205811    0.041204020    0.142355215
 377   Q   :    0.133923119   -0.245944255    0.117411560
 378   Q   :   -0.210690346    0.115476609    0.133407991
 379   Q   :    0.077339168    0.132439257   -0.257455610
 380   Q   :   -0.210938027   -0.203811122   -0.141179881
 381   Q   :    0.258971402    0.035881043   -0.109545456
 382   Q   :   -0.049637784    0.157892099    0.247377245
 383   Q   :    0.026140360    0.191268820    0.209352070
 384   Q   :   -0.208885324   -0.048369729   -0.143911889
 385   Q   :    0.179431137   -0.134166005   -0.057859318
 386   Q   :    0.029031768    0.295124032   -0.044239340
 387   Q   :   -0.218111293   -0.146231214   -0.016053486
 388   Q   :    0.194905105   -0.154999007    0.061242421
 389   Q   :    0.127742128   -0.016742050    0.258098968
 390   Q   :    0.104753717    0.079946831   -0.227996853
 391   Q   :   -0.232392457   -0.071226681   -0.028137304
 392   Q   :   -0.177768810    0.120341554   -0.170949019
 393   Q   :   -0.017274715   -0.045047450    0.257178564
 394   Q   :    0.182998255   -0.073888328   -0.092503272
 395   Q   :    0.284563323    0.041067825    0.024633263
 396   Q   :   -0.165324388    0.015276827    0.176226397
 397   Q   :   -0.107017015   -0.043200923   -0.208488228
 398   Q   :   -0.266988679   -0.013967043    0.061853248
 399   Q   :    0.202231621   -0.032768711    0.145718347
 400   Q   :    0.051778451    0.045967613   -0.209525672
 401   Q   :    0.263116745   -0.051157425    0.157086284
 402   Q   :    0.020600269    0.237204768   -0.229184835
 403   Q   :   -0.282038340   -0.184799163    0.067956459
 404   Q   :    0.109318568    0.232264219   -0.048413898
 405   Q   :   -0.252988355   -0.083344840   -0.014724613
 406   Q   :    0.143738238   -0.150936022    0.057273828
 407   Q   :   -0.035301892    0.215008437    0.160163031
 408   Q   :    0.253927122   -0.166293535    0.030768450
 409   Q   :   -0.204893620   -0.056049405   -0.203110016
 410   Q   :    0.284456897    0.032891412   -0.138129911
 411   Q   :   -0.066203227    0.110591338    0.272085796
 412   Q   :   -0.205756279   -0.133673434   -0.140829908
 413   Q   :   -0.053975646    0.210976185   -0.127161553
 414   Q   :   -0.164185151   -0.204804178    0.109364179
 415   Q   :    0.223146136   -0.000800482    0.018159046
 416   Q   :    0.123085987    0.031757718   -0.256695915
 417   Q   :   -0.279440993   -0.050177903    0.049313843
 418   Q   :    0.154116040    0.016547928    0.213480783
 419   Q   :    0.076010881    0.063669300   -0.241305359
 420   Q   :    0.215696578   -0.040647488    0.216515495
 421   Q   :   -0.301105007   -0.018470270    0.031587233
 422   Q   :    0.005567758   -0.090045853   -0.259619298
 423   Q   :    0.189090274   -0.105687550    0.192472627
 424   Q   :   -0.209328262    0.189420500    0.078562339
 425   Q   :   -0.011581798    0.248380207    0.129529121
 426   Q   :    0.083127677   -0.052817729   -0.245807247
 427   Q   :   -0.069955341   -0.178149437    0.121848383
 428   Q   :    0.031278115    0.054850849    0.300359932
 429   Q   :   -0.041581440    0.191167287   -0.170630139
 430   Q   :    0.003874547   -0.262738422   -0.128487308
 431   Q   :   -0.203589459    0.213512564    0.007420627
 432   Q   :   -0.046335781   -0.247594405    0.100274758
 433   Q   :    0.246926082    0.035083540   -0.118560915
 434   Q   :   -0.120252482   -0.191150631   -0.138765226
 435   Q   :    0.182622255   -0.020365802    0.195590804
 436   Q   :   -0.072932964    0.207348252   -0.045089238
 437   Q   :    0.241378657   -0.005745798    0.025851999
 438   Q   :   -0.139759022    0.131049194   -0.196176822
 439   Q   :   -0.105992409   -0.110193452    0.169906942
 440   Q   :    0.133114118    0.079123450    0.255007652
 441   Q   :   -0.013935386    0.157060855   -0.252789119
 442   Q   :   -0.113332727   -0.234715921    0.003261126
 443   Q   :   -0.288027429   -0.064217387   -0.008042599
 444   Q   :    0.105907899    0.165958410    0.247458467
 445   Q   :    0.180996699   -0.093278878   -0.232410063
 446   Q   :    0.129474914    0.198364096   -0.150675952
 447   Q   :    0.002470904   -0.308923021   -0.067884074
 448   Q   :   -0.142529733    0.116021949    0.215719191
 449   Q   :   -0.081876811   -0.219902632    0.149399888
 450   Q   :   -0.064427114    0.010766666   -0.272317944
 451   Q   :    0.158840964    0.207192474    0.121553617
 452   Q   :    0.028829651   -0.133733974   -0.242656260
 453   Q   :    0.206028725    0.075724039    0.163016400
 454   Q   :   -0.241215191    0.036017585    0.076508769
 455   Q   :   -0.030237460   -0.182646305    0.168714536
 456   Q   :    0.074548883    0.000004429   -0.245460193
 457   Q   :   -0.049116023    0.177117079    0.078718161
 458   Q   :   -0.108133691    0.036440690   -0.268187590
 459   Q   :    0.045041470   -0.244677776    0.108048657
 460   Q   :    0.064857351    0.208205771    0.148413579
 461   Q   :    0.140363646    0.164531336   -0.073835853
 462   Q   :   -0.166333556   -0.142496028   -0.097117797
 463   Q   :    0.033326621   -0.023598053    0.177016964
 464   Q   :   -0.040802743   -0.054798212    0.263384606
 465   Q   :    0.181365024    0.171751819   -0.097833425
 466   Q   :   -0.145038960   -0.121578371   -0.179074082
 467   Q   :    0.082708796    0.164658031    0.168825628
 468   Q   :    0.023314258    0.061838724   -0.290326354
 469   Q   :   -0.113955687   -0.228527452    0.116679560
 470   Q   :    0.218506125   -0.191402094    0.075806479
 471   Q   :   -0.102719294    0.176033279    0.193511600
 472   Q   :   -0.115058854    0.008044235   -0.267403412
 473   Q   :   -0.147372065    0.174006089    0.176515831
 474   Q   :   -0.095082722   -0.184870007   -0.213209147
 475   Q   :    0.238106392    0.003249211    0.040719861
 476   Q   :    0.230175806    0.032393104    0.080145651
 477   Q   :   -0.172274639    0.142614849   -0.175848494
 478   Q   :   -0.066903258   -0.172950588    0.083938220
 479   Q   :    0.126621980    0.278944019   -0.000283790
 480   Q   :   -0.257337829   -0.067523906   -0.110501290
 481   Q   :    0.138149330   -0.206199431    0.105042998
 482   Q   :    0.105883525    0.236405125   -0.053301663
 483   Q   :   -0.244745925   -0.034110081    0.140972591
 484   Q   :    0.140422779   -0.205832488   -0.101744199
 485   Q   :   -0.023092108    0.313968941    0.011496353
 486   Q   :   -0.180157382   -0.152604514   -0.184249697
 487   Q   :    0.203947622   -0.162813350    0.171072309
 488   Q   :    0.122638847   -0.232809907    0.091867658
 489   Q   :    0.116269813    0.192326711   -0.099095418
 490   Q   :   -0.234842215    0.046126358    0.008255910
 491   Q   :    0.124452270    0.063622697   -0.204322238
 492   Q   :    0.080076235   -0.022358557    0.232973124
 493   Q   :   -0.203143908   -0.038799625   -0.026961831
 494   Q   :    0.230854222   -0.166906411   -0.020426515
 495   Q   :   -0.110048165    0.096315263    0.185174899
 496   Q   :   -0.113285787    0.066199689   -0.184215163
 497   Q   :   -0.204254986   -0.123302114   -0.151419203
 498   Q   :    0.279080074   -0.065319847   -0.066314392
 499   Q   :   -0.066846090    0.175054550    0.221658203
 500   Q   :   -0.132744189    0.193380852   -0.093579164
 501   Q   :   -0.087565681   -0.273849722   -0.050199975
 502   Q   :    0.220080992    0.077048074    0.136900235
 503   Q   :   -0.092358370   -0.114809108    0.219569101
 504   Q   :   -0.108562204   -0.010110083   -0.251464836
 505   Q   :    0.207592072    0.117212624    0.022893566
 506   Q   :    0.098099488    0.175143139   -0.232188504
 507   Q   :    0.168421291   -0.118062835    0.203481357
 508   Q   :   -0.272169041   -0.056220502    0.027343025
 509   Q   :   -0.012028401   -0.289803272    0.051456239
 510   Q   :   -0.013659819    0.110655769   -0.259422854
 511   Q   :    0.018435759    0.178393422    0.200570754
 512   Q   :    0.123149019   -0.104258184   -0.263501121
 513   Q   :    0.093096280   -0.200856963    0.275088384
 514   Q   :   -0.214390808    0.301269711   -0.003017592
 515   Q   :   -0.072259106    0.243359943   -0.118523433
 516   Q   :   -0.061345399   -0.248573352   -0.066927872
 517   Q   :    0.137554256    0.005280323    0.186874184
 518   Q   :    0.104527705    0.274409433    0.076201685
 519   Q   :    0.149161952   -0.215049528   -0.030938807
 520   Q   :   -0.255102114   -0.054717615   -0.040089928
 521   Q   :    0.216972960    0.029306209   -0.187200404
 522   Q   :   -0.194415152    0.172049283    0.012390239
 523   Q   :   -0.017112229   -0.199167309    0.171015693
 524   Q   :    0.136964101   -0.215166974   -0.063658546
 525   Q   :   -0.199501571   -0.006927228    0.188001752
 526   Q   :    0.055727562    0.220952425   -0.116288874
 527   Q   :    0.082154299    0.038498390   -0.248067510
 528   Q   :   -0.033333317   -0.210176316    0.144513586
 529   Q   :   -0.058101446    0.176080043    0.102345338
 530   Q   :    0.176745219   -0.090569758    0.189103146
 531   Q   :   -0.275097752   -0.057110186   -0.005154340
 532   Q   :    0.099835136    0.160722530   -0.184749471
 533   Q   :    0.161061512   -0.068659341   -0.199890261
 534   Q   :    0.063424302    0.181802499    0.219065378
 535   Q   :   -0.223343331   -0.114170981   -0.003674598
 536   Q   :    0.210266710    0.132755401   -0.102820956
 537   Q   :   -0.173914733    0.034094120    0.165532978
 538   Q   :   -0.040447408   -0.160553300   -0.055459564
 539   Q   :    0.260195172   -0.088687318   -0.077897361
 540   Q   :   -0.042235491    0.244749656    0.070174247
 541   Q   :   -0.196413470   -0.153979924    0.010063456
 542   Q   :   -0.033610327   -0.316043726    0.058202602
 543   Q   :    0.298738608    0.069453855    0.056959049
 544   Q   :   -0.267709675    0.249835536   -0.113035961
 545   Q   :   -0.254652950   -0.111379971    0.000296125
 546   Q   :    0.138548713    0.091893828    0.233664433
 547   Q   :    0.122322729    0.015638648   -0.231072565
 548   Q   :   -0.271009001   -0.091166088   -0.039273264
 549   Q   :    0.239034879   -0.054366744   -0.174682379
 550   Q   :    0.032041694    0.151692547    0.225283181
 551   Q   :    0.021555204   -0.184970230   -0.157335921
 552   Q   :    0.204818896    0.106720626    0.186348746
 553   Q   :   -0.228556925    0.084134755   -0.029798337
 554   Q   :   -0.049979583   -0.132913729    0.218016129
 555   Q   :    0.122870642   -0.111503000   -0.257443919
 556   Q   :   -0.071987382    0.238913364    0.036594895
 557   Q   :    0.053597183    0.134338750   -0.205960412
 558   Q   :    0.031145449    0.041138368    0.252676266
 559   Q   :   -0.069368487   -0.173489723   -0.037736671
 560   Q   :    0.077574850   -0.117857822    0.240052465
 561   Q   :   -0.277590326   -0.021079416   -0.118095800
 562   Q   :    0.197663201    0.141550105   -0.111065049
 563   Q   :   -0.135875274   -0.179584634    0.160891802
 564   Q   :    0.110665931    0.227851209    0.056120632
 565   Q   :    0.016908847   -0.055415013   -0.223831240
 566   Q   :   -0.229984104    0.010823342   -0.177161049
 567   Q   :    0.146239207   -0.193161264    0.066069889
 568   Q   :    0.068786063    0.199135178    0.120332998
 569   Q   :    0.007957111    0.234346514   -0.117790596
 570   Q   :    0.154283145   -0.123449143    0.131801485
 571   Q   :   -0.163243777   -0.100923455   -0.009712562
 572   Q   :   -0.045743120   -0.215772884   -0.132769681
 573   Q   :   -0.206477706    0.194953883    0.093513483
 574   Q   :    0.253731716    0.030269323    0.041221632
 575   Q   :   -0.199098269   -0.197491424    0.129324668
 576   Q   :    0.166161150   -0.044265443   -0.227109867
 577   Q   :    0.023601454    0.234754858    0.094880986
 578   Q   :    0.213690865    0.186502416   -0.009971336
 579   Q   :   -0.261796592    0.051325958    0.093068438
 580   Q   :    0.035812708   -0.238813044   -0.077557698
 581   Q   :    0.191651444    0.171491164   -0.046718526
 582   Q   :   -0.015190172   -0.201862020    0.201640844
 583   Q   :   -0.189125371    0.027641346   -0.144864481
 584   Q   :   -0.064354363    0.217563549    0.206017630
 585   Q   :   -0.194357884   -0.161436201   -0.111136118
 586   Q   :    0.265743726   -0.057259649   -0.089001162
 587   Q   :   -0.051524724    0.141649623    0.255327038
 588   Q   :    0.240389164   -0.143142432   -0.058755567
 589   Q   :   -0.185854548    0.001030327   -0.194210059
 590   Q   :    0.172355044   -0.084197177    0.187406608
 591   Q   :   -0.252812022    0.082249490    0.028172873
 592   Q   :    0.081836556   -0.003272064   -0.218596841
 593   Q   :   -0.011044773    0.046358279    0.294011537
 594   Q   :    0.050781912    0.223207468   -0.182860600
 595   Q   :   -0.038394282   -0.270043907   -0.104228105
 596   Q   :   -0.052630361    0.177003773   -0.202468292
 597   Q   :    0.206422271    0.032104012    0.177444649
 598   Q   :   -0.148586528   -0.195786599    0.019174340
 599   Q   :    0.035326030    0.207149421    0.222710322
 600   Q   :   -0.045456515    0.054691159   -0.272402554
 601   Q   :    0.014430895   -0.260398552    0.047634722
 602   Q   :   -0.214781309    0.066417204   -0.164896104
 603   Q   :    0.165444537    0.183895650    0.125122338
 604   Q   :    0.056931271   -0.249940593    0.034642176
 605   Q   :   -0.113322855   -0.075477312   -0.269330225
 606   Q   :    0.107754500   -0.173182969    0.134328949
 607   Q   :   -0.002302502    0.242187583    0.126670082
 608   Q   :    0.001144572    0.278198411    0.012649793
 609   Q   :   -0.187410375   -0.174579684    0.082830013
 610   Q   :    0.185493313   -0.105183636   -0.081260863
 611   Q   :    0.190660893   -0.107063796    0.174856236
 612   Q   :   -0.199289007    0.166627897    0.063360143
 613   Q   :    0.012486040   -0.063176331   -0.227189360
 614   Q   :   -0.076411850   -0.236003654   -0.009944165
 615   Q   :    0.023138059    0.192671674    0.209062256
 616   Q   :    0.050836846    0.043730693   -0.194952130
 617   Q   :   -0.208534906    0.130338267    0.122502748
 618   Q   :    0.136484687   -0.253661327    0.107601196
 619   Q   :    0.072534106    0.125146484   -0.220379904
 620   Q   :   -0.251374150    0.102021653    0.078764777
 621   Q   :    0.245025715    0.045978784    0.172529750
 622   Q   :    0.016150379   -0.142919695   -0.254945359
 623   Q   :   -0.113164411    0.166062930   -0.225299390
 624   Q   :   -0.097189170   -0.281664515    0.043342481
 625   Q   :    0.219890577    0.126959360    0.177459280

Difference to translation invariance:
           :   -0.0001244513   -0.0000668314    0.0001346886

Difference to rotation invariance:
           :    0.0064417942   -0.0094996129    0.0049784201

Norm of the cartesian gradient     ...    6.2591517826
RMS gradient                       ...    0.1445489187
MAX gradient                       ...    0.3329664998

-------
TIMINGS
-------

Total SCF gradient time            ...      216.254 sec

One electron gradient       ....      26.708 sec  ( 12.4%)
RI-J Coulomb gradient       ....      11.073 sec  (  5.1%)
COSX gradient               ....     138.075 sec  ( 63.8%)
XC gradient                 ....      16.577 sec  (  7.7%)

Maximum memory used throughout the entire SCFGRAD-calculation: 808.1 MB

                            ***************************************
                            *     ORCA property calculations      *
                            ***************************************

                                    ---------------------
                                    Active property flags
                                    ---------------------
   (+) Dipole Moment


------------------------------------------------------------------------------
                       ORCA ELECTRIC PROPERTIES CALCULATION
------------------------------------------------------------------------------

Dipole Moment Calculation                       ... on
Quadrupole Moment Calculation                   ... off
Polarizability Calculation                      ... off
GBWName                                         ... final035.orca.gbw
Electron density                                ... final035.orca.scfp
The origin for moment calculation is the CENTER OF MASS  = (17.685409, 20.232139 20.081317)

-------------
DIPOLE MOMENT
-------------
                                X             Y             Z
Electronic contribution:      0.74361       1.96782      -1.48147
Nuclear contribution   :     -7.69719       8.59535      -3.90114
                        -----------------------------------------
Total Dipole Moment    :     -6.95359      10.56317      -5.38261
                        -----------------------------------------
Magnitude (a.u.)       :     13.74429
Magnitude (Debye)      :     34.93521



--------------------
Rotational spectrum 
--------------------
 
Rotational constants in cm-1:     0.001784     0.001665     0.001307 
Rotational constants in MHz :    53.481486    49.927436    39.178617 

 Dipole components along the rotational axes: 
x,y,z [a.u.] :    -3.843192    -2.100752    13.027750 
x,y,z [Debye]:    -9.768618    -5.339687    33.113908 

 

Timings for individual modules:

Sum of individual times         ...      890.134 sec (=  14.836 min)
GTO integral calculation        ...       13.413 sec (=   0.224 min)   1.5 %
SCF iterations                  ...      655.673 sec (=  10.928 min)  73.7 %
SCF Gradient evaluation         ...      221.048 sec (=   3.684 min)  24.8 %
                             ****ORCA TERMINATED NORMALLY****
TOTAL RUN TIME: 0 days 0 hours 14 minutes 58 seconds 70 msec
