
                                 *****************
                                 * O   R   C   A *
                                 *****************

                                            #,                                       
                                            ###                                      
                                            ####                                     
                                            #####                                    
                                            ######                                   
                                           ########,                                 
                                     ,,################,,,,,                         
                               ,,#################################,,                 
                          ,,##########################################,,             
                       ,#########################################, ''#####,          
                    ,#############################################,,   '####,        
                  ,##################################################,,,,####,       
                ,###########''''           ''''###############################       
              ,#####''   ,,,,##########,,,,          '''####'''          '####       
            ,##' ,,,,###########################,,,                        '##       
           ' ,,###''''                  '''############,,,                           
         ,,##''                                '''############,,,,        ,,,,,,###''
      ,#''                                            '''#######################'''  
     '                                                          ''''####''''         
             ,#######,   #######,   ,#######,      ##                                
            ,#'     '#,  ##    ##  ,#'     '#,    #''#        ######   ,####,        
            ##       ##  ##   ,#'  ##            #'  '#       #        #'  '#        
            ##       ##  #######   ##           ,######,      #####,   #    #        
            '#,     ,#'  ##    ##  '#,     ,#' ,#      #,         ##   #,  ,#        
             '#######'   ##     ##  '#######'  #'      '#     #####' # '####'        



                  #######################################################
                  #                        -***-                        #
                  #          Department of theory and spectroscopy      #
                  #    Directorship and core code : Frank Neese         #
                  #        Max Planck Institute fuer Kohlenforschung    #
                  #                Kaiser Wilhelm Platz 1               #
                  #                 D-45470 Muelheim/Ruhr               #
                  #                      Germany                        #
                  #                                                     #
                  #                  All rights reserved                #
                  #                        -***-                        #
                  #######################################################


                         Program Version 5.0.3 -  RELEASE  -


 With contributions from (in alphabetic order):
   Daniel Aravena         : Magnetic Suceptibility
   Michael Atanasov       : Ab Initio Ligand Field Theory (pilot matlab implementation)
   Alexander A. Auer      : GIAO ZORA, VPT2 properties, NMR spectrum
   Ute Becker             : Parallelization
   Giovanni Bistoni       : ED, misc. LED, open-shell LED, HFLD
   Martin Brehm           : Molecular dynamics
   Dmytro Bykov           : SCF Hessian
   Vijay G. Chilkuri      : MRCI spin determinant printing, contributions to CSF-ICE
   Dipayan Datta          : RHF DLPNO-CCSD density
   Achintya Kumar Dutta   : EOM-CC, STEOM-CC
   Dmitry Ganyushin       : Spin-Orbit,Spin-Spin,Magnetic field MRCI
   Miquel Garcia          : C-PCM and meta-GGA Hessian, CC/C-PCM, Gaussian charge scheme
   Yang Guo               : DLPNO-NEVPT2, F12-NEVPT2, CIM, IAO-localization
   Andreas Hansen         : Spin unrestricted coupled pair/coupled cluster methods
   Benjamin Helmich-Paris : MC-RPA, TRAH-SCF, COSX integrals
   Lee Huntington         : MR-EOM, pCC
   Robert Izsak           : Overlap fitted RIJCOSX, COSX-SCS-MP3, EOM
   Marcus Kettner         : VPT2
   Christian Kollmar      : KDIIS, OOCD, Brueckner-CCSD(T), CCSD density, CASPT2, CASPT2-K
   Simone Kossmann        : Meta GGA functionals, TD-DFT gradient, OOMP2, MP2 Hessian
   Martin Krupicka        : Initial AUTO-CI
   Lucas Lang             : DCDCAS
   Marvin Lechner         : AUTO-CI (C++ implementation), FIC-MRCC
   Dagmar Lenk            : GEPOL surface, SMD
   Dimitrios Liakos       : Extrapolation schemes; Compound Job, initial MDCI parallelization
   Dimitrios Manganas     : Further ROCIS development; embedding schemes
   Dimitrios Pantazis     : SARC Basis sets
   Anastasios Papadopoulos: AUTO-CI, single reference methods and gradients
   Taras Petrenko         : DFT Hessian,TD-DFT gradient, ASA, ECA, R-Raman, ABS, FL, XAS/XES, NRVS
   Peter Pinski           : DLPNO-MP2, DLPNO-MP2 Gradient
   Christoph Reimann      : Effective Core Potentials
   Marius Retegan         : Local ZFS, SOC
   Christoph Riplinger    : Optimizer, TS searches, QM/MM, DLPNO-CCSD(T), (RO)-DLPNO pert. Triples
   Tobias Risthaus        : Range-separated hybrids, TD-DFT gradient, RPA, STAB
   Michael Roemelt        : Original ROCIS implementation
   Masaaki Saitow         : Open-shell DLPNO-CCSD energy and density
   Barbara Sandhoefer     : DKH picture change effects
   Avijit Sen             : IP-ROCIS
   Kantharuban Sivalingam : CASSCF convergence, NEVPT2, FIC-MRCI
   Bernardo de Souza      : ESD, SOC TD-DFT
   Georgi Stoychev        : AutoAux, RI-MP2 NMR, DLPNO-MP2 response
   Willem Van den Heuvel  : Paramagnetic NMR
   Boris Wezisla          : Elementary symmetry handling
   Frank Wennmohs         : Technical directorship


 We gratefully acknowledge several colleagues who have allowed us to
 interface, adapt or use parts of their codes:
   Stefan Grimme, W. Hujo, H. Kruse, P. Pracht,  : VdW corrections, initial TS optimization,
                  C. Bannwarth, S. Ehlert          DFT functionals, gCP, sTDA/sTD-DF
   Ed Valeev, F. Pavosevic, A. Kumar             : LibInt (2-el integral package), F12 methods
   Garnet Chan, S. Sharma, J. Yang, R. Olivares  : DMRG
   Ulf Ekstrom                                   : XCFun DFT Library
   Mihaly Kallay                                 : mrcc  (arbitrary order and MRCC methods)
   Jiri Pittner, Ondrej Demel                    : Mk-CCSD
   Frank Weinhold                                : gennbo (NPA and NBO analysis)
   Christopher J. Cramer and Donald G. Truhlar   : smd solvation model
   Lars Goerigk                                  : TD-DFT with DH, B97 family of functionals
   V. Asgeirsson, H. Jonsson                     : NEB implementation
   FAccTs GmbH                                   : IRC, NEB, NEB-TS, DLPNO-Multilevel, CI-OPT
                                                   MM, QMMM, 2- and 3-layer-ONIOM, Crystal-QMMM,
                                                   LR-CPCM, SF, NACMEs, symmetry and pop. for TD-DFT,
                                                   nearIR, NL-DFT gradient (VV10), updates on ESD,
                                                   ML-optimized integration grids
   S Lehtola, MJT Oliveira, MAL Marques          : LibXC Library
   Liviu Ungur et al                             : ANISO software


 Your calculation uses the libint2 library for the computation of 2-el integrals
 For citations please refer to: http://libint.valeyev.net

 Your ORCA version has been built with support for libXC version: 5.1.0
 For citations please refer to: https://tddft.org/programs/libxc/

 This ORCA versions uses:
   CBLAS   interface :  Fast vector & matrix operations
   LAPACKE interface :  Fast linear algebra routines
   SCALAPACK package :  Parallel linear algebra routines
   Shared memory     :  Shared parallel matrices
   BLAS/LAPACK       :  OpenBLAS 0.3.15  USE64BITINT DYNAMIC_ARCH NO_AFFINITY SkylakeX SINGLE_THREADED
        Core in use  :  SkylakeX
   Copyright (c) 2011-2014, The OpenBLAS Project


================================================================================

----- Orbital basis set information -----
Your calculation utilizes the basis: def2-SVP
   F. Weigend and R. Ahlrichs, Phys. Chem. Chem. Phys. 7, 3297 (2005).

The basis set includes element-specific modifications.

Your calculation utilizes the basis: aug-cc-pVTZ 
    H, B-Ne : Obtained from the ccRepo (grant-hill.group.shef.ac.uk/ccrepo) Feb. 2017
              R. A. Kendall, T. H. Dunning, Jr., R. J. Harrison, J. Chem. Phys. 96, 6796 (1992)
         He : Obtained from the ccRepo (grant-hill.group.shef.ac.uk/ccrepo) Feb. 2017
              D. E. Woon, T. H. Dunning, Jr., J. Chem. Phys. 100, 2975 (1994)
  Li-Be, Na : Obtained from the ccRepo (grant-hill.group.shef.ac.uk/ccrepo) Feb. 2017
              B. P. Prascher, D. E. Woon, K. A. Peterson, T. H. Dunning, Jr., A. K. Wilson, Theor. Chem. Acc. 128, 69 (2011)
         Mg : Obtained from the Peterson Research Group Website (tyr0.chem.wsu.edu/~kipeters) Feb. 2017
              B. P. Prascher, D. E. Woon, K. A. Peterson, T. H. Dunning, Jr., A. K. Wilson, Theor. Chem. Acc. 128, 69 (2011)
      Al-Ar : Obtained from the ccRepo (grant-hill.group.shef.ac.uk/ccrepo) Feb. 2017
              D. E. Woon, T. H. Dunning, Jr., J. Chem. Phys. 98, 1358 (1993)
      Sc-Zn : Obtained from the ccRepo (grant-hill.group.shef.ac.uk/ccrepo) Feb. 2017
              N. B. Balabanov, K. A. Peterson, J. Chem. Phys. 123, 064107 (2005)
              N. B. Balabanov, K. A. Peterson, J. Chem. Phys. 125, 074110 (2006)
      Ga-Kr : Obtained from the ccRepo (grant-hill.group.shef.ac.uk/ccrepo) Feb. 2017
              A. K. Wilson, D. E. Woon, K. A. Peterson, T. H. Dunning, Jr., J. Chem. Phys. 110, 7667 (1999)
     Ag, Au : Obtained from the Peterson Research Group Website (tyr0.chem.wsu.edu/~kipeters) Feb. 2017
              K. A. Peterson, C. Puzzarini, Theor. Chem. Acc. 114, 283 (2005)

Your calculation utilizes the basis: cc-pVTZ 
       H, B-Ne : Obtained from the ccRepo (grant-hill.group.shef.ac.uk/ccrepo) Feb. 2017
                 T. H. Dunning, Jr., J. Chem. Phys. 90, 1007 (1989)
            He : Obtained from the ccRepo (grant-hill.group.shef.ac.uk/ccrepo) Feb. 2017
                 D. E. Woon, T. H. Dunning, Jr., J. Chem. Phys. 100, 2975 (1994)
  Li-Be, Na-Mg : Obtained from the ccRepo (grant-hill.group.shef.ac.uk/ccrepo) Feb. 2017
                 B. P. Prascher, D. E. Woon, K. A. Peterson, T. H. Dunning, Jr., A. K. Wilson, Theor. Chem. Acc. 128, 69 (2011)
         Al-Ar : Obtained from the ccRepo (grant-hill.group.shef.ac.uk/ccrepo) Feb. 2017
                 D. E. Woon, T. H. Dunning, Jr., J. Chem. Phys. 98, 1358 (1993)
            Ca : Obtained from the Peterson Research Group Website (tyr0.chem.wsu.edu/~kipeters) Feb. 2017
                 J. Koput, K. A. Peterson, J. Phys. Chem. 106, 9595 (2002)
         Sc-Zn : Obtained from the ccRepo (grant-hill.group.shef.ac.uk/ccrepo) Feb. 2017
                 N. B. Balabanov, K. A. Peterson, J. Chem. Phys. 123, 064107 (2005)
                 N. B. Balabanov, K. A. Peterson, J. Chem. Phys. 125, 074110 (2006)
         Ga-Kr : Obtained from the ccRepo (grant-hill.group.shef.ac.uk/ccrepo) Feb. 2017
                 A. K. Wilson, D. E. Woon, K. A. Peterson, T. H. Dunning, Jr., J. Chem. Phys. 110, 7667 (1999)
             Y : Obtained from the ccRepo (grant-hill.group.shef.ac.uk/ccrepo) Feb. 2017
                 K. A. Peterson, D. Figgen, M. Dolg, H. Stoll, J. Chem. Phys. 126, 124101 (2007)
        Ag, Au : Obtained from the Peterson Research Group Website (tyr0.chem.wsu.edu/~kipeters) Feb. 2017
                 K. A. Peterson, C. Puzzarini, Theor. Chem. Acc. 114, 283 (2005)

----- AuxJ basis set information -----
Your calculation utilizes the auxiliary basis: def2/J
   F. Weigend, Phys. Chem. Chem. Phys. 8, 1057 (2006).

================================================================================
                                        WARNINGS
                       Please study these warnings very carefully!
================================================================================

WARNING: The globally-selected AuxJ basis set is optimized for use with ECPs
         Make sure a suitable alternative is explicitly given all heavy elements (Z>36)

INFO   : the flag for use of the SHARK integral package has been found!

================================================================================
                                       INPUT FILE
================================================================================
NAME = final027.orca.inp
|  1> ! NoMOPrint PrintBasis #MINIPRINT SMALLPRINT LARGEPRINT
|  2> ! ALLPOP XYZFILE
|  3> #! BP86 3-21G   TightSCF
|  4> ! ENGRAD
|  5> ! B3LYP NormalPNO PModel #DecontractAux
|  6> #! VerySlowConv 
|  7>  %maxcore 5000
|  8>  %scf  maxiter   500  end 
|  9> 
| 10> %pal
| 11>     nprocs 32
| 12> end
| 13> 
| 14> %basis
| 15>     NewGTO O    # New basis for oxygen
| 16>         "aug-cc-pVTZ"
| 17>     end
| 18>     NewGTO C    # New basis for carbon
| 19>         "aug-cc-pVTZ"
| 20>     end
| 21>     NewGTO H    # New basis for hydrogen
| 22>         "cc-pVTZ"
| 23>     end
| 24> end
| 25> 
| 26> * xyz 0   1
| 27>   C  11.48  12.05  9.82  #1
| 28>   H  11.89  11.07  9.48  #2
| 29>   H  12.43  12.59  10.16  #3
| 30>   C  10.39  12.03  10.89  #4
| 31>   H  10.18  13.06  11.21  #5
| 32>   H  9.41  11.73  10.6  #6
| 33>   C  10.83  11.26  12.19  #7
| 34>   H  10.24  11.65  12.98  #8
| 35>   H  11.93  11.36  12.47  #9
| 36>   C  10.43  9.76  12.17  #10
| 37>   H  11.28  9.25  11.57  #11
| 38>   H  9.46  9.51  11.67  #12
| 39>   O  10.35  9.14  13.5  #13
| 40>   H  11.24  8.77  13.64  #14
| 41>   O  10.93  12.84  8.72  #15
| 42>   H  10.29  12.33  8.2  #16
| 43>   O  9.16  11.59  6.89  #17
| 44>   H  9.26  10.8  7.4  #18
| 45>   H  8.3  11.98  7.2  #19
| 46>   O  11.98  8.77  9.21  #20
| 47>   H  11.89  7.84  8.96  #21
| 48>   H  12.17  9.15  8.36  #22
| 49>   O  14.98  10.73  13.03  #23
| 50>   H  14.98  11.67  12.84  #24
| 51>   H  14.9  10.14  12.29  #25
| 52>   O  9.4  9.12  8.11  #26
| 53>   H  9.13  8.21  7.86  #27
| 54>   H  10.21  9.06  8.61  #28
| 55>   O  13.42  12.8  7.05  #29
| 56>   H  12.56  12.85  7.48  #30
| 57>   H  14.04  12.38  7.64  #31
| 58>   O  7.11  7.18  12.09  #32
| 59>   H  7.12  7.92  11.5  #33
| 60>   H  8.02  7.11  12.43  #34
| 61>   O  13.16  9.11  14.73  #35
| 62>   H  13.63  9.97  14.52  #36
| 63>   H  13.81  8.42  14.49  #37
| 64>   O  10.81  6.29  8.06  #38
| 65>   H  10.33  6.37  7.25  #39
| 66>   H  11.64  5.73  7.92  #40
| 67>   O  10.8  10.75  4.91  #41
| 68>   H  10.77  10.14  4.15  #42
| 69>   H  9.84  10.84  5.13  #43
| 70>   O  14.02  8.75  17.44  #44
| 71>   H  13.58  8.5  16.62  #45
| 72>   H  14.89  8.43  17.3  #46
| 73>   O  9.76  6.36  12.88  #47
| 74>   H  9.82  6.97  13.54  #48
| 75>   H  9.85  5.47  13.29  #49
| 76>   O  8.78  8.21  15.18  #50
| 77>   H  9.31  8.84  14.61  #51
| 78>   H  8.55  8.69  16.01  #52
| 79>   O  14.33  9.35  10.61  #53
| 80>   H  14.73  9.96  9.92  #54
| 81>   H  13.48  9.09  10.15  #55
| 82>   O  5.57  5.22  11.23  #56
| 83>   H  5.47  4.54  11.92  #57
| 84>   H  6.14  5.93  11.63  #58
| 85>   O  8.27  11.56  15.14  #59
| 86>   H  8.86  11.05  15.71  #60
| 87>   H  7.54  10.98  14.95  #61
| 88>   O  14.08  13.51  10.25  #62
| 89>   H  13.8  13.76  11.12  #63
| 90>   H  14.14  14.31  9.67  #64
| 91>   O  13.47  12.29  15.2  #65
| 92>   H  14.44  12.28  15.34  #66
| 93>   H  13.3  12.74  14.4  #67
| 94>   O  15.96  8.38  14.17  #68
| 95>   H  16.76  8.19  13.64  #69
| 96>   H  15.71  9.29  13.84  #70
| 97>   O  15.41  11.47  9  #71
| 98>   H  16.23  11.89  9.26  #72
| 99>   H  14.68  11.82  9.56  #73
|100>   O  10.78  13.02  15.87  #74
|101>   H  11.69  12.74  15.7  #75
|102>   H  10.2  12.74  15.2  #76
|103>   O  7.24  9.32  10.11  #77
|104>   H  6.62  9.81  9.6  #78
|105>   H  8.03  9.18  9.56  #79
|106>   O  14.36  14.8  5.49  #80
|107>   H  14.04  14.02  5.99  #81
|108>   H  15.32  14.73  5.31  #82
|109>   O  8.58  14.27  14.07  #83
|110>   H  8.37  13.43  14.48  #84
|111>   H  8.03  14.31  13.26  #85
|112>   O  12.86  9.71  6.72  #86
|113>   H  12.31  10.16  6.08  #87
|114>   H  13.79  10.14  6.61  #88
|115>   O  6.81  12.63  7.6  #89
|116>   H  7.09  13.54  7.81  #90
|117>   H  6.04  12.48  8.16  #91
|118>   O  13.89  5.84  13.57  #92
|119>   H  14.66  6.28  13.97  #93
|120>   H  14.12  6.1  12.66  #94
|121>   O  10.72  15.41  9.09  #95
|122>   H  10.91  14.43  8.96  #96
|123>   H  11.26  15.9  8.4  #97
|124>   Q  0.6645  19.33$  10.39$  13.85$
|125>   Q  0.6645  18.74$  11.84$  13.58$
|126>   Q  -1.3290  19.28$  11.26$  13.95$
|127>   Q  0.6645  1.85$  8.62$  18.54$
|128>   Q  0.6645  2.74$  8.16$  17.51$
|129>   Q  -1.3290  2.11$  8.58$  17.77$
|130>   Q  0.6645  20.07$  16.5$  11.57$
|131>   Q  0.6645  21.56$  16.62$  11.99$
|132>   Q  -1.3290  20.79$  16.28$  11.95$
|133>   Q  0.6645  19.53$  5.4$  10.36$
|134>   Q  0.6645  19.71$  5.82$  8.84$
|135>   Q  -1.3290  19.42$  5.89$  9.64$
|136>   Q  0.6645  5.65$  17.6$  4.95$
|137>   Q  0.6645  5.77$  16.71$  3.71$
|138>   Q  -1.3290  5.9$  16.92$  4.51$
|139>   Q  0.6645  8.88$  19.23$  13.5$
|140>   Q  0.6645  7.6$  18.36$  13.66$
|141>   Q  -1.3290  8.06$  19.03$  13.39$
|142>   Q  0.6645  13.32$  11.37$  19.77$
|143>   Q  0.6645  14.1$  10.78$  20.92$
|144>   Q  -1.3290  13.49$  11.22$  20.58$
|145>   Q  0.6645  10.76$  7.89$  16.72$
|146>   Q  0.6645  11.88$  7.13$  17.37$
|147>   Q  -1.3290  11.09$  7.31$  17.2$
|148>   Q  0.6645  5.21$  15.64$  5.6$
|149>   Q  0.6645  4.37$  14.55$  5.63$
|150>   Q  -1.3290  4.63$  15.2$  5.99$
|151>   Q  0.6645  16.48$  14.66$  9.97$
|152>   Q  0.6645  16.01$  15.73$  10.99$
|153>   Q  -1.3290  16.55$  15.23$  10.6$
|154>   Q  0.6645  7.69$  6.68$  15.32$
|155>   Q  0.6645  7.09$  5.64$  16.27$
|156>   Q  -1.3290  7.55$  5.91$  15.63$
|157>   Q  0.6645  4.1$  5.55$  10.02$
|158>   Q  0.6645  2.62$  5.74$  9.87$
|159>   Q  -1.3290  3.41$  5.77$  9.61$
|160>   Q  0.6645  3.64$  13.3$  19.34$
|161>   Q  0.6645  4.57$  13.14$  18.07$
|162>   Q  -1.3290  3.87$  13.38$  18.52$
|163>   Q  0.6645  19.65$  6.44$  14.73$
|164>   Q  0.6645  18.81$  7.21$  15.7$
|165>   Q  -1.3290  19.39$  7.13$  15.09$
|166>   Q  0.6645  10.09$  5.92$  11.17$
|167>   Q  0.6645  10.23$  5.49$  9.6$
|168>   Q  -1.3290  10.03$  5.41$  10.44$
|169>   Q  0.6645  14.88$  16.63$  6.23$
|170>   Q  0.6645  15.31$  17.76$  5.32$
|171>   Q  -1.3290  15.33$  17.28$  6.01$
|172>   Q  0.6645  12.22$  17.57$  7.05$
|173>   Q  0.6645  11.91$  16.41$  6.15$
|174>   Q  -1.3290  12.03$  16.78$  6.88$
|175>   Q  0.6645  17.84$  19.34$  13.4$
|176>   Q  0.6645  17.08$  19.86$  12.13$
|177>   Q  -1.3290  17.72$  19.48$  12.56$
|178>   Q  0.6645  17.53$  5.56$  7.3$
|179>   Q  0.6645  17.02$  4.08$  7.42$
|180>   Q  -1.3290  17.5$  4.72$  7.12$
|181>   Q  0.6645  9.67$  18.26$  4.25$
|182>   Q  0.6645  11.05$  19.1$  4.34$
|183>   Q  -1.3290  10.19$  18.95$  4.19$
|184>   Q  0.6645  13.4$  17.16$  17.05$
|185>   Q  0.6645  12.74$  15.8$  17.67$
|186>   Q  -1.3290  13.31$  16.5$  17.6$
|187>   Q  0.6645  1.89$  13.6$  5.58$
|188>   Q  0.6645  2.06$  12.47$  4.42$
|189>   Q  -1.3290  2.3$  13.07$  5.03$
|190>   Q  0.6645  3.02$  10.23$  5.55$
|191>   Q  0.6645  3.47$  8.95$  6.24$
|192>   Q  -1.3290  3.57$  9.76$  5.92$
|193>   Q  0.6645  6.75$  1.87$  8.6$
|194>   Q  0.6645  6.7$  1.19$  9.94$
|195>   Q  -1.3290  6.99$  1.32$  9.17$
|196>   Q  0.6645  13.71$  13.5$  1.11$
|197>   Q  0.6645  13.59$  13.06$  -0.46$
|198>   Q  -1.3290  13.71$  13.61$  0.21$
|199>   Q  0.6645  15.65$  4.81$  17.34$
|200>   Q  0.6645  16.74$  3.73$  17.55$
|201>   Q  -1.3290  16.42$  4.45$  17.25$
|202>   Q  0.6645  15.94$  21.58$  10.88$
|203>   Q  0.6645  15.14$  20.99$  11.88$
|204>   Q  -1.3290  15.78$  20.98$  11.37$
|205>   Q  0.6645  11.85$  20.53$  16.66$
|206>   Q  0.6645  10.42$  20.45$  16.05$
|207>   Q  -1.3290  11$  20.37$  16.67$
|208>   Q  0.6645  13.39$  0.92$  7.41$
|209>   Q  0.6645  12.67$  2.04$  6.59$
|210>   Q  -1.3290  13.3$  1.49$  6.79$
|211>   Q  0.6645  10.29$  7.89$  18.94$
|212>   Q  0.6645  10.16$  8.76$  20.12$
|213>   Q  -1.3290  9.88$  8.19$  19.58$
|214>   Q  0.6645  13.47$  11.83$  17.17$
|215>   Q  0.6645  13.92$  10.63$  17.86$
|216>   Q  -1.3290  13.78$  11.45$  17.78$
|217>   Q  0.6645  10.86$  16.19$  14.42$
|218>   Q  0.6645  10.23$  14.99$  13.75$
|219>   Q  -1.3290  10.75$  15.64$  13.8$
|220>   Q  0.6645  6.26$  20.55$  10.67$
|221>   Q  0.6645  5.15$  21.4$  10.06$
|222>   Q  -1.3290  5.61$  21.07$  10.68$
|223>   Q  0.6645  1.06$  8.83$  12.58$
|224>   Q  0.6645  0.7$  8.68$  14.16$
|225>   Q  -1.3290  1.16$  8.57$  13.42$
|226>   Q  0.6645  6.65$  4.78$  9.76$
|227>   Q  0.6645  8.04$  4.97$  9.63$
|228>   Q  -1.3290  7.31$  4.73$  9.37$
|229>   Q  0.6645  9.69$  12.41$  2.29$
|230>   Q  0.6645  10.96$  13.14$  2.49$
|231>   Q  -1.3290  10.38$  12.78$  2.03$
|232>   Q  0.6645  1.43$  16.19$  6.13$
|233>   Q  0.6645  3.02$  16.59$  5.95$
|234>   Q  -1.3290  2.14$  16.57$  5.79$
|235>   Q  0.6645  13.21$  5.17$  17.43$
|236>   Q  0.6645  14.26$  5.94$  18.27$
|237>   Q  -1.3290  13.9$  5.68$  17.58$
|238>   Q  0.6645  15.04$  2.54$  11.16$
|239>   Q  0.6645  14.4$  2.94$  9.85$
|240>   Q  -1.3290  14.58$  2.44$  10.5$
|241>   Q  0.6645  18.1$  16.53$  10.53$
|242>   Q  0.6645  18.52$  18$  10.85$
|243>   Q  -1.3290  18.55$  17.25$  10.44$
|244>   Q  0.6645  11.08$  14.64$  4.45$
|245>   Q  0.6645  10.62$  15.75$  3.49$
|246>   Q  -1.3290  10.71$  15.35$  4.25$
|247>   Q  0.6645  7.51$  10.44$  19.1$
|248>   Q  0.6645  8.3$  11.78$  19.59$
|249>   Q  -1.3290  8.05$  11.13$  19.1$
|250>   Q  0.6645  16.03$  11.21$  6.25$
|251>   Q  0.6645  16.4$  9.86$  5.97$
|252>   Q  -1.3290  15.89$  10.48$  5.97$
|253>   Q  0.6645  15.82$  2.4$  8.58$
|254>   Q  0.6645  14.94$  2.46$  7.43$
|255>   Q  -1.3290  15.56$  2.74$  7.89$
|256>   Q  0.6645  20.32$  14.51$  10.82$
|257>   Q  0.6645  20.53$  13.32$  10.09$
|258>   Q  -1.3290  20.13$  14.02$  10.21$
|259>   Q  0.6645  10.29$  7.15$  1.33$
|260>   Q  0.6645  9.82$  7.97$  0.15$
|261>   Q  -1.3290  9.72$  7.57$  0.89$
|262>   Q  0.6645  13.59$  3.01$  16.47$
|263>   Q  0.6645  15.02$  2.37$  16.69$
|264>   Q  -1.3290  14.17$  2.46$  16.79$
|265>   Q  0.6645  4.66$  13.34$  12.42$
|266>   Q  0.6645  4.31$  14.59$  13$
|267>   Q  -1.3290  4.28$  13.79$  12.97$
|268>   Q  0.6645  11.6$  19.88$  11.2$
|269>   Q  0.6645  11.65$  18.44$  11.58$
|270>   Q  -1.3290  11.78$  19.29$  11.7$
|271>   Q  0.6645  19.93$  15.58$  6.94$
|272>   Q  0.6645  19.68$  14.94$  8.31$
|273>   Q  -1.3290  19.55$  15.49$  7.68$
|274>   Q  0.6645  9.95$  4.02$  5.98$
|275>   Q  0.6645  11.52$  4.14$  6.09$
|276>   Q  -1.3290  10.76$  3.78$  5.87$
|277>   Q  0.6645  14.19$  2.43$  14.11$
|278>   Q  0.6645  14.85$  3.75$  13.68$
|279>   Q  -1.3290  14.85$  2.95$  13.99$
|280>   Q  0.6645  4.21$  9.63$  2.33$
|281>   Q  0.6645  4.43$  8.96$  3.7$
|282>   Q  -1.3290  4$  9.16$  3.01$
|283>   Q  0.6645  13.19$  20.44$  12.94$
|284>   Q  0.6645  13.18$  22.09$  13.18$
|285>   Q  -1.3290  13.46$  21.22$  13.22$
|286>   Q  0.6645  5.8$  12.43$  16.55$
|287>   Q  0.6645  6.72$  12.14$  17.69$
|288>   Q  -1.3290  6.24$  12.64$  17.2$
|289>   Q  0.6645  14.33$  9.44$  4.17$
|290>   Q  0.6645  13.25$  9.71$  3.06$
|291>   Q  -1.3290  13.96$  9.87$  3.52$
|292>   Q  0.6645  16.84$  8.02$  4.73$
|293>   Q  0.6645  18.3$  7.9$  5.14$
|294>   Q  -1.3290  17.65$  8.29$  4.82$
|295>   Q  0.6645  6.63$  16.42$  17.73$
|296>   Q  0.6645  5.14$  16.34$  17.23$
|297>   Q  -1.3290  5.86$  16.73$  17.51$
|298>   Q  0.6645  11.72$  7.56$  4.51$
|299>   Q  0.6645  12.54$  8.41$  5.47$
|300>   Q  -1.3290  12.45$  7.9$  4.8$
|301>   Q  0.6645  10.23$  15.02$  20.39$
|302>   Q  0.6645  8.95$  15.6$  19.61$
|303>   Q  -1.3290  9.5$  15.01$  19.91$
|304>   Q  0.6645  12.03$  2.31$  14.23$
|305>   Q  0.6645  12.31$  2.36$  12.68$
|306>   Q  -1.3290  12.45$  2.18$  13.48$
|307>   Q  0.6645  17.21$  4.35$  15.5$
|308>   Q  0.6645  16.65$  3.52$  14.35$
|309>   Q  -1.3290  17.23$  4.02$  14.72$
|310>   Q  0.6645  4.16$  3.16$  10.67$
|311>   Q  0.6645  4.19$  3.82$  9.18$
|312>   Q  -1.3290  3.97$  3.26$  9.81$
|313>   Q  0.6645  6.46$  21.09$  14.94$
|314>   Q  0.6645  7.05$  21.17$  13.43$
|315>   Q  -1.3290  6.72$  21.48$  14.17$
|316>   Q  0.6645  15.44$  16.56$  1.1$
|317>   Q  0.6645  15.38$  17.01$  2.62$
|318>   Q  -1.3290  15.76$  16.75$  1.88$
|319>   Q  0.6645  4.29$  9.9$  9.69$
|320>   Q  0.6645  3.98$  10.57$  8.32$
|321>   Q  -1.3290  4.35$  10.51$  9.07$
|322>   Q  0.6645  4.68$  2.23$  15.69$
|323>   Q  0.6645  5.98$  1.92$  16.22$
|324>   Q  -1.3290  5.18$  1.78$  16.12$
|325>   Q  0.6645  19.97$  12.26$  7.68$
|326>   Q  0.6645  21.34$  12.42$  7.09$
|327>   Q  -1.3290  20.79$  12.34$  7.71$
|328>   Q  0.6645  7.89$  6.32$  6.13$
|329>   Q  0.6645  7.91$  5.17$  7.24$
|330>   Q  -1.3290  8.23$  5.63$  6.6$
|331>   Q  0.6645  12.28$  8.56$  21.37$
|332>   Q  0.6645  12.06$  10.08$  21.07$
|333>   Q  -1.3290  11.82$  9.25$  21.22$
|334>   Q  0.6645  17.37$  9.23$  20.23$
|335>   Q  0.6645  16.31$  8.34$  20.96$
|336>   Q  -1.3290  16.99$  8.49$  20.48$
|337>   Q  0.6645  14.52$  7.36$  21.97$
|338>   Q  0.6645  14.08$  7.97$  20.57$
|339>   Q  -1.3290  14.33$  7.99$  21.38$
|340>   Q  0.6645  17.31$  6.49$  19.9$
|341>   Q  0.6645  16.73$  5.56$  18.85$
|342>   Q  -1.3290  16.9$  5.78$  19.62$
|343>   Q  0.6645  9.15$  7.84$  4.37$
|344>   Q  0.6645  9.91$  7.86$  3.05$
|345>   Q  -1.3290  9.83$  7.79$  3.86$
|346>   Q  0.6645  10.53$  20.12$  9.1$
|347>   Q  0.6645  11.73$  21.13$  9.34$
|348>   Q  -1.3290  11.06$  20.68$  9.55$
|349>   Q  0.6645  1.18$  14.83$  10.16$
|350>   Q  0.6645  1.68$  16.02$  9.29$
|351>   Q  -1.3290  1.58$  15.19$  9.52$
|352>   Q  0.6645  4.59$  15.08$  7.9$
|353>   Q  0.6645  3.75$  15.09$  9.21$
|354>   Q  -1.3290  4.46$  15.13$  8.73$
|355>   Q  0.6645  7.41$  16.26$  9.65$
|356>   Q  0.6645  7.18$  17.52$  10.52$
|357>   Q  -1.3290  7.18$  16.68$  10.33$
|358>   Q  0.6645  0.92$  12.64$  10.74$
|359>   Q  0.6645  0.02$  12.31$  9.5$
|360>   Q  -1.3290  0.25$  12.31$  10.34$
|361>   Q  0.6645  10.46$  11.22$  16.9$
|362>   Q  0.6645  9.48$  10.51$  17.8$
|363>   Q  -1.3290  10.04$  10.54$  17.19$
|364>   Q  0.6645  11.06$  9.66$  1.27$
|365>   Q  0.6645  11.29$  10.9$  2.09$
|366>   Q  -1.3290  11.26$  10.08$  1.95$
|367>   Q  0.6645  18.8$  10.9$  20.08$
|368>   Q  0.6645  17.93$  11.65$  19.04$
|369>   Q  -1.3290  18.22$  10.96$  19.47$
|370>   Q  0.6645  13.62$  15.83$  8.13$
|371>   Q  0.6645  14.79$  16.43$  9.1$
|372>   Q  -1.3290  14.35$  15.86$  8.61$
|373>   Q  0.6645  13.02$  19.81$  5.02$
|374>   Q  0.6645  13.15$  18.39$  4.91$
|375>   Q  -1.3290  12.82$  19.04$  5.21$
|376>   Q  0.6645  16.31$  16.1$  14.7$
|377>   Q  0.6645  15.1$  17.01$  14.7$
|378>   Q  -1.3290  15.65$  16.49$  14.37$
|379>   Q  0.6645  14.26$  -0.5$  9.46$
|380>   Q  0.6645  13.71$  0.9$  9.73$
|381>   Q  -1.3290  13.68$  0.11$  9.41$
|382>   Q  0.6645  4.8$  17.62$  8.26$
|383>   Q  0.6645  3.34$  17.97$  8.65$
|384>   Q  -1.3290  4.15$  18.15$  8.42$
|385>   Q  0.6645  16.53$  9.91$  1.21$
|386>   Q  0.6645  15.78$  9.7$  2.42$
|387>   Q  -1.3290  16.43$  9.58$  1.94$
|388>   Q  0.6645  7.24$  14.43$  17.11$
|389>   Q  0.6645  8.13$  15.11$  16.14$
|390>   Q  -1.3290  7.81$  14.98$  16.88$
|391>   Q  0.6645  8.14$  17.79$  18.96$
|392>   Q  0.6645  9.49$  17.83$  19.82$
|393>   Q  -1.3290  8.7$  17.54$  19.57$
|394>   Q  0.6645  10.25$  17.59$  1.45$
|395>   Q  0.6645  10.36$  16.12$  1.28$
|396>   Q  -1.3290  10.09$  16.84$  1.67$
|397>   Q  0.6645  7.39$  16.11$  14.11$
|398>   Q  0.6645  6.73$  16.64$  15.48$
|399>   Q  -1.3290  7.17$  16.68$  14.74$
|400>   Q  0.6645  17.15$  12.83$  3.73$
|401>   Q  0.6645  17.09$  14.43$  3.63$
|402>   Q  -1.3290  16.79$  13.62$  3.73$
|403>   Q  0.6645  4.91$  7.14$  14.81$
|404>   Q  0.6645  5.78$  5.89$  14.7$
|405>   Q  -1.3290  5.07$  6.32$  14.82$
|406>   Q  0.6645  1.38$  6.11$  12.25$
|407>   Q  0.6645  0.4$  6.42$  11.02$
|408>   Q  -1.3290  1.1$  6.12$  11.43$
|409>   Q  0.6645  18.16$  12.25$  6.02$
|410>   Q  0.6645  17.74$  13.12$  7.28$
|411>   Q  -1.3290  18$  12.41$  6.87$
|412>   Q  0.6645  6.07$  8.93$  1.69$
|413>   Q  0.6645  5.45$  9.76$  0.53$
|414>   Q  -1.3290  5.88$  9.66$  1.24$
|415>   Q  0.6645  15.22$  15.73$  18.14$
|416>   Q  0.6645  16.65$  15.13$  18.42$
|417>   Q  -1.3290  16.1$  15.72$  18.17$
|418>   Q  0.6645  4.36$  10.01$  13.84$
|419>   Q  0.6645  3.16$  8.98$  13.76$
|420>   Q  -1.3290  3.95$  9.27$  13.67$
|421>   Q  0.6645  9.16$  0.97$  17.62$
|422>   Q  0.6645  10.44$  0.26$  17.73$
|423>   Q  -1.3290  9.98$  0.94$  17.72$
|424>   Q  0.6645  3.17$  5.96$  14.14$
|425>   Q  0.6645  1.86$  6.55$  14.29$
|426>   Q  -1.3290  2.36$  5.94$  14.14$
|427>   Q  0.6645  18.34$  18.74$  5.59$
|428>   Q  0.6645  17.82$  17.36$  6.03$
|429>   Q  -1.3290  18.32$  17.9$  5.62$
|430>   Q  0.6645  12.82$  13.15$  3.99$
|431>   Q  0.6645  11.68$  12.46$  4.58$
|432>   Q  -1.3290  12.02$  13.02$  4.07$
|433>   Q  0.6645  3.67$  19.18$  5.24$
|434>   Q  0.6645  4.22$  18.71$  6.63$
|435>   Q  -1.3290  4.23$  18.84$  5.77$
|436>   Q  0.6645  16.34$  6.9$  6.52$
|437>   Q  0.6645  17.11$  7.98$  7.51$
|438>   Q  -1.3290  16.7$  7.23$  7.26$
|439>   Q  0.6645  17.59$  12.13$  11.08$
|440>   Q  0.6645  18.45$  12.83$  10.1$
|441>   Q  -1.3290  17.97$  12.21$  10.36$
|442>   Q  0.6645  10.25$  14.94$  18.26$
|443>   Q  0.6645  10.72$  14.33$  16.84$
|444>   Q  -1.3290  10.77$  14.85$  17.58$
|445>   Q  0.6645  4.73$  12.08$  10.11$
|446>   Q  0.6645  4.82$  13.56$  9.83$
|447>   Q  -1.3290  4.92$  12.88$  10.33$
|448>   Q  0.6645  3.95$  5.86$  16.7$
|449>   Q  0.6645  3.72$  5.99$  18.13$
|450>   Q  -1.3290  3.68$  6.23$  17.36$
|451>   Q  0.6645  8.08$  8.56$  18.42$
|452>   Q  0.6645  6.55$  8.87$  18.14$
|453>   Q  -1.3290  7.38$  8.6$  17.97$
|454>   Q  0.6645  3.31$  8.02$  10.87$
|455>   Q  0.6645  3.65$  9.01$  11.8$
|456>   Q  -1.3290  3.53$  8.76$  11.03$
|457>   Q  0.6645  13.81$  16.01$  3.99$
|458>   Q  0.6645  13.16$  16.87$  2.95$
|459>   Q  -1.3290  13.72$  16.72$  3.55$
|460>   Q  0.6645  17.44$  8.85$  17.07$
|461>   Q  0.6645  16.63$  8.17$  15.86$
|462>   Q  -1.3290  16.97$  8.24$  16.67$
|463>   Q  0.6645  4.98$  2.19$  12.99$
|464>   Q  0.6645  4.37$  3.41$  13.47$
|465>   Q  -1.3290  4.78$  2.97$  12.92$
|466>   Q  0.6645  5.3$  10.21$  5.62$
|467>   Q  0.6645  6.18$  11.48$  5.72$
|468>   Q  -1.3290  5.94$  10.72$  5.4$
|469>   Q  0.6645  13.08$  5.02$  20.61$
|470>   Q  0.6645  11.93$  5.11$  19.66$
|471>   Q  -1.3290  12.51$  5.41$  20.16$
|472>   Q  0.6645  8.44$  13.73$  20.85$
|473>   Q  0.6645  8.65$  12.86$  22.1$
|474>   Q  -1.3290  8.23$  13.06$  21.39$
|475>   Q  0.6645  15.24$  6.45$  3.99$
|476>   Q  0.6645  14.46$  7.22$  4.94$
|477>   Q  -1.3290  15.15$  6.87$  4.69$
|478>   Q  0.6645  7.83$  1.6$  13.74$
|479>   Q  0.6645  8.53$  1.81$  12.28$
|480>   Q  -1.3290  8.41$  1.88$  13.17$
|481>   Q  0.6645  18.03$  6.45$  17.36$
|482>   Q  0.6645  19$  5.26$  17.5$
|483>   Q  -1.3290  18.77$  6.07$  17.53$
|484>   Q  0.6645  4.66$  19.13$  14.71$
|485>   Q  0.6645  4.92$  18.1$  13.63$
|486>   Q  -1.3290  4.56$  18.79$  13.97$
|487>   Q  0.6645  14.29$  19.33$  15.6$
|488>   Q  0.6645  13.12$  18.6$  14.93$
|489>   Q  -1.3290  13.8$  18.67$  15.42$
|490>   Q  0.6645  4.52$  12.53$  4.18$
|491>   Q  0.6645  5.62$  11.75$  3.75$
|492>   Q  -1.3290  5.17$  12.41$  3.71$
|493>   Q  0.6645  10.73$  3.16$  17.94$
|494>   Q  0.6645  10.86$  4.67$  17.43$
|495>   Q  -1.3290  10.93$  4.02$  18$
|496>   Q  0.6645  7.26$  4.02$  19.82$
|497>   Q  0.6645  6.05$  3.38$  19.36$
|498>   Q  -1.3290  6.86$  3.38$  19.54$
|499>   Q  0.6645  7.32$  12.38$  2.77$
|500>   Q  0.6645  7.46$  11.17$  1.9$
|501>   Q  -1.3290  7.71$  11.74$  2.46$
|502>   Q  0.6645  15.37$  5.65$  10.51$
|503>   Q  0.6645  14.9$  7.15$  10.53$
|504>   Q  -1.3290  14.85$  6.31$  10.68$
|505>   Q  0.6645  17.83$  18.35$  8.68$
|506>   Q  0.6645  16.71$  18.38$  7.67$
|507>   Q  -1.3290  17.23$  18.71$  8.25$
|508>   Q  0.6645  11.3$  16.48$  11.91$
|509>   Q  0.6645  11.64$  16.2$  10.42$
|510>   Q  -1.3290  11.7$  16.59$  11.2$
|511>   Q  0.6645  4.64$  12.26$  14.47$
|512>   Q  0.6645  3.79$  11.58$  15.63$
|513>   Q  -1.3290  4.46$  11.66$  15.07$
|514>   Q  0.6645  17.23$  14.22$  15.86$
|515>   Q  0.6645  18.45$  14.99$  15.01$
|516>   Q  -1.3290  17.65$  14.85$  15.38$
|517>   Q  0.6645  18.93$  9.24$  7.43$
|518>   Q  0.6645  17.83$  10.45$  7.59$
|519>   Q  -1.3290  18.18$  9.64$  7.62$
|520>   Q  0.6645  18.23$  13.43$  19.68$
|521>   Q  0.6645  18.54$  13.78$  18.19$
|522>   Q  -1.3290  18.06$  13.48$  18.84$
|523>   Q  0.6645  8.25$  21.25$  6.48$
|524>   Q  0.6645  9.14$  20.31$  5.62$
|525>   Q  -1.3290  8.87$  20.73$  6.32$
|526>   Q  0.6645  16.31$  11.58$  16.16$
|527>   Q  0.6645  15.46$  12.6$  16.95$
|528>   Q  -1.3290  15.91$  12.31$  16.3$
|529>   Q  0.6645  18.67$  10.93$  15.82$
|530>   Q  0.6645  18.66$  10.5$  17.31$
|531>   Q  -1.3290  18.32$  10.67$  16.56$
|532>   Q  0.6645  7.24$  14.87$  11.31$
|533>   Q  0.6645  6.5$  13.66$  11.16$
|534>   Q  -1.3290  7.1$  14.1$  11.43$
|535>   Q  0.6645  5.21$  13.18$  1.65$
|536>   Q  0.6645  6.11$  13.5$  0.44$
|537>   Q  -1.3290  5.36$  13.38$  0.86$
|538>   Q  0.6645  2.07$  13.65$  12.85$
|539>   Q  0.6645  0.62$  13.87$  12.89$
|540>   Q  -1.3290  1.35$  13.9$  12.55$
|541>   Q  0.6645  4.83$  16.52$  11.13$
|542>   Q  0.6645  3.63$  16.8$  11.86$
|543>   Q  -1.3290  4.4$  16.54$  11.81$
|544>   Q  0.6645  13.84$  17.11$  11.08$
|545>   Q  0.6645  14.99$  17.2$  12.12$
|546>   Q  -1.3290  14.64$  17.21$  11.34$
|547>   Q  0.6645  17.53$  5.15$  9.98$
|548>   Q  0.6645  17.28$  3.79$  10.21$
|549>   Q  -1.3290  17.08$  4.56$  10.3$
|550>   Q  0.6645  2.06$  10.62$  17.23$
|551>   Q  0.6645  2.46$  12.06$  17.48$
|552>   Q  -1.3290  2.39$  11.35$  17$
|553>   Q  0.6645  12.79$  4.66$  14.72$
|554>   Q  0.6645  11.42$  4.25$  15.32$
|555>   Q  -1.3290  12.26$  4.36$  15.31$
|556>   Q  0.6645  17.05$  13.72$  13.41$
|557>   Q  0.6645  17.98$  13.93$  12.31$
|558>   Q  -1.3290  17.59$  13.47$  12.85$
|559>   Q  0.6645  8.63$  0.74$  10.03$
|560>   Q  0.6645  9.69$  0.06$  10.73$
|561>   Q  -1.3290  9.22$  0.69$  10.61$
|562>   Q  0.6645  14.59$  20.18$  6.74$
|563>   Q  0.6645  15.58$  21.29$  7.37$
|564>   Q  -1.3290  15.22$  20.81$  6.78$
|565>   Q  0.6645  14.36$  11.74$  3.01$
|566>   Q  0.6645  15.16$  12.92$  3.06$
|567>   Q  -1.3290  14.5$  12.49$  2.82$
|568>   Q  0.6645  18.88$  11.65$  3.37$
|569>   Q  0.6645  17.68$  10.76$  3.64$
|570>   Q  -1.3290  18.29$  11.3$  3.84$
|571>   Q  0.6645  8.2$  15.71$  7.44$
|572>   Q  0.6645  8.93$  15.12$  8.64$
|573>   Q  -1.3290  8.27$  15.23$  8.12$
|574>   Q  0.6645  9.25$  4.81$  15.06$
|575>   Q  0.6645  9.19$  3.49$  14.17$
|576>   Q  -1.3290  9.55$  4.12$  14.62$
|577>   Q  0.6645  6.33$  5.03$  4.52$
|578>   Q  0.6645  6.39$  6.36$  3.76$
|579>   Q  -1.3290  6.12$  5.83$  4.37$
|580>   Q  0.6645  18.49$  9.09$  9.47$
|581>   Q  0.6645  19.11$  7.76$  9.88$
|582>   Q  -1.3290  18.93$  8.58$  9.99$
|583>   Q  0.6645  10.49$  2.29$  10.8$
|584>   Q  0.6645  10.77$  3.73$  11.07$
|585>   Q  -1.3290  10.98$  2.92$  10.93$
|586>   Q  0.6645  7.85$  16.96$  5.53$
|587>   Q  0.6645  9.24$  16.33$  5.63$
|588>   Q  -1.3290  8.61$  16.79$  5.9$
|589>   Q  0.6645  13.49$  5.05$  9.82$
|590>   Q  0.6645  12.43$  3.94$  9.87$
|591>   Q  -1.3290  13$  4.44$  9.48$
|592>   Q  0.6645  8.61$  21.14$  14.6$
|593>   Q  0.6645  9.61$  22.27$  14.26$
|594>   Q  -1.3290  9.35$  21.5$  14.6$
|595>   Q  0.6645  4.43$  10.28$  17.76$
|596>   Q  0.6645  4.76$  9.81$  19.11$
|597>   Q  -1.3290  4.95$  9.99$  18.31$
|598>   Q  0.6645  14.19$  14.84$  13.31$
|599>   Q  0.6645  12.72$  14.83$  12.9$
|600>   Q  -1.3290  13.49$  14.51$  12.98$
|601>   Q  0.6645  7.32$  9.05$  5.35$
|602>   Q  0.6645  6.66$  7.63$  5.16$
|603>   Q  -1.3290  7.26$  8.2$  5.39$
|604>   Q  0.6645  2.94$  6.71$  6.81$
|605>   Q  0.6645  3.61$  7.28$  8.04$
|606>   Q  -1.3290  3.03$  7.25$  7.46$
|607>   Q  0.6645  11.07$  18.34$  16.34$
|608>   Q  0.6645  11.17$  16.92$  16.38$
|609>   Q  -1.3290  11.21$  17.63$  15.98$
|610>   Q  0.6645  8.27$  19.56$  11.53$
|611>   Q  0.6645  8.67$  19.2$  10.04$
|612>   Q  -1.3290  8.17$  19.52$  10.67$
|613>   Q  0.6645  11.14$  14.11$  0.73$
|614>   Q  0.6645  12.32$  14.95$  0.12$
|615>   Q  -1.3290  11.51$  14.8$  0.36$
|616>   Q  0.6645  15.52$  19.3$  8.78$
|617>   Q  0.6645  14.67$  19.17$  9.96$
|618>   Q  -1.3290  14.79$  19.21$  9.15$
|619>   Q  0.6645  9.15$  19.56$  7.68$
|620>   Q  0.6645  9.62$  18.18$  7.94$
|621>   Q  -1.3290  9.38$  18.92$  8.17$
|622>   Q  0.6645  18.99$  8.09$  13.34$
|623>   Q  0.6645  18.6$  8.69$  11.94$
|624>   Q  -1.3290  18.59$  8.61$  12.81$
|625>   Q  0.6645  6.29$  6.42$  1.8$
|626>   Q  0.6645  7.62$  7.09$  1.55$
|627>   Q  -1.3290  6.94$  6.94$  1.98$
|628>   Q  0.6645  17.61$  15.3$  7.8$
|629>   Q  0.6645  16.04$  15.17$  7.48$
|630>   Q  -1.3290  16.82$  14.93$  7.65$
|631>   Q  0.6645  13.87$  5.26$  5.87$
|632>   Q  0.6645  13.62$  5.05$  7.41$
|633>   Q  -1.3290  13.41$  5.1$  6.56$
|634>   Q  0.6645  7.67$  3.02$  17.9$
|635>   Q  0.6645  8.23$  3.27$  16.45$
|636>   Q  -1.3290  7.83$  2.84$  17.06$
|637>   Q  0.6645  8.35$  5.62$  20.89$
|638>   Q  0.6645  8.08$  6.6$  19.92$
|639>   Q  -1.3290  7.83$  6$  20.39$
|640> *
|641> 
|642>                          ****END OF INPUT****
================================================================================

                     *******************************
                     * Energy+Gradient Calculation *
                     *******************************

---------------------------------
CARTESIAN COORDINATES (ANGSTROEM)
---------------------------------
  C     11.480000   12.050000    9.820000
  H     11.890000   11.070000    9.480000
  H     12.430000   12.590000   10.160000
  C     10.390000   12.030000   10.890000
  H     10.180000   13.060000   11.210000
  H      9.410000   11.730000   10.600000
  C     10.830000   11.260000   12.190000
  H     10.240000   11.650000   12.980000
  H     11.930000   11.360000   12.470000
  C     10.430000    9.760000   12.170000
  H     11.280000    9.250000   11.570000
  H      9.460000    9.510000   11.670000
  O     10.350000    9.140000   13.500000
  H     11.240000    8.770000   13.640000
  O     10.930000   12.840000    8.720000
  H     10.290000   12.330000    8.200000
  O      9.160000   11.590000    6.890000
  H      9.260000   10.800000    7.400000
  H      8.300000   11.980000    7.200000
  O     11.980000    8.770000    9.210000
  H     11.890000    7.840000    8.960000
  H     12.170000    9.150000    8.360000
  O     14.980000   10.730000   13.030000
  H     14.980000   11.670000   12.840000
  H     14.900000   10.140000   12.290000
  O      9.400000    9.120000    8.110000
  H      9.130000    8.210000    7.860000
  H     10.210000    9.060000    8.610000
  O     13.420000   12.800000    7.050000
  H     12.560000   12.850000    7.480000
  H     14.040000   12.380000    7.640000
  O      7.110000    7.180000   12.090000
  H      7.120000    7.920000   11.500000
  H      8.020000    7.110000   12.430000
  O     13.160000    9.110000   14.730000
  H     13.630000    9.970000   14.520000
  H     13.810000    8.420000   14.490000
  O     10.810000    6.290000    8.060000
  H     10.330000    6.370000    7.250000
  H     11.640000    5.730000    7.920000
  O     10.800000   10.750000    4.910000
  H     10.770000   10.140000    4.150000
  H      9.840000   10.840000    5.130000
  O     14.020000    8.750000   17.440000
  H     13.580000    8.500000   16.620000
  H     14.890000    8.430000   17.300000
  O      9.760000    6.360000   12.880000
  H      9.820000    6.970000   13.540000
  H      9.850000    5.470000   13.290000
  O      8.780000    8.210000   15.180000
  H      9.310000    8.840000   14.610000
  H      8.550000    8.690000   16.010000
  O     14.330000    9.350000   10.610000
  H     14.730000    9.960000    9.920000
  H     13.480000    9.090000   10.150000
  O      5.570000    5.220000   11.230000
  H      5.470000    4.540000   11.920000
  H      6.140000    5.930000   11.630000
  O      8.270000   11.560000   15.140000
  H      8.860000   11.050000   15.710000
  H      7.540000   10.980000   14.950000
  O     14.080000   13.510000   10.250000
  H     13.800000   13.760000   11.120000
  H     14.140000   14.310000    9.670000
  O     13.470000   12.290000   15.200000
  H     14.440000   12.280000   15.340000
  H     13.300000   12.740000   14.400000
  O     15.960000    8.380000   14.170000
  H     16.760000    8.190000   13.640000
  H     15.710000    9.290000   13.840000
  O     15.410000   11.470000    9.000000
  H     16.230000   11.890000    9.260000
  H     14.680000   11.820000    9.560000
  O     10.780000   13.020000   15.870000
  H     11.690000   12.740000   15.700000
  H     10.200000   12.740000   15.200000
  O      7.240000    9.320000   10.110000
  H      6.620000    9.810000    9.600000
  H      8.030000    9.180000    9.560000
  O     14.360000   14.800000    5.490000
  H     14.040000   14.020000    5.990000
  H     15.320000   14.730000    5.310000
  O      8.580000   14.270000   14.070000
  H      8.370000   13.430000   14.480000
  H      8.030000   14.310000   13.260000
  O     12.860000    9.710000    6.720000
  H     12.310000   10.160000    6.080000
  H     13.790000   10.140000    6.610000
  O      6.810000   12.630000    7.600000
  H      7.090000   13.540000    7.810000
  H      6.040000   12.480000    8.160000
  O     13.890000    5.840000   13.570000
  H     14.660000    6.280000   13.970000
  H     14.120000    6.100000   12.660000
  O     10.720000   15.410000    9.090000
  H     10.910000   14.430000    8.960000
  H     11.260000   15.900000    8.400000
  Q     19.330000   10.390000   13.850000
  Q     18.740000   11.840000   13.580000
  Q     19.280000   11.260000   13.950000
  Q      1.850000    8.620000   18.540000
  Q      2.740000    8.160000   17.510000
  Q      2.110000    8.580000   17.770000
  Q     20.070000   16.500000   11.570000
  Q     21.560000   16.620000   11.990000
  Q     20.790000   16.280000   11.950000
  Q     19.530000    5.400000   10.360000
  Q     19.710000    5.820000    8.840000
  Q     19.420000    5.890000    9.640000
  Q      5.650000   17.600000    4.950000
  Q      5.770000   16.710000    3.710000
  Q      5.900000   16.920000    4.510000
  Q      8.880000   19.230000   13.500000
  Q      7.600000   18.360000   13.660000
  Q      8.060000   19.030000   13.390000
  Q     13.320000   11.370000   19.770000
  Q     14.100000   10.780000   20.920000
  Q     13.490000   11.220000   20.580000
  Q     10.760000    7.890000   16.720000
  Q     11.880000    7.130000   17.370000
  Q     11.090000    7.310000   17.200000
  Q      5.210000   15.640000    5.600000
  Q      4.370000   14.550000    5.630000
  Q      4.630000   15.200000    5.990000
  Q     16.480000   14.660000    9.970000
  Q     16.010000   15.730000   10.990000
  Q     16.550000   15.230000   10.600000
  Q      7.690000    6.680000   15.320000
  Q      7.090000    5.640000   16.270000
  Q      7.550000    5.910000   15.630000
  Q      4.100000    5.550000   10.020000
  Q      2.620000    5.740000    9.870000
  Q      3.410000    5.770000    9.610000
  Q      3.640000   13.300000   19.340000
  Q      4.570000   13.140000   18.070000
  Q      3.870000   13.380000   18.520000
  Q     19.650000    6.440000   14.730000
  Q     18.810000    7.210000   15.700000
  Q     19.390000    7.130000   15.090000
  Q     10.090000    5.920000   11.170000
  Q     10.230000    5.490000    9.600000
  Q     10.030000    5.410000   10.440000
  Q     14.880000   16.630000    6.230000
  Q     15.310000   17.760000    5.320000
  Q     15.330000   17.280000    6.010000
  Q     12.220000   17.570000    7.050000
  Q     11.910000   16.410000    6.150000
  Q     12.030000   16.780000    6.880000
  Q     17.840000   19.340000   13.400000
  Q     17.080000   19.860000   12.130000
  Q     17.720000   19.480000   12.560000
  Q     17.530000    5.560000    7.300000
  Q     17.020000    4.080000    7.420000
  Q     17.500000    4.720000    7.120000
  Q      9.670000   18.260000    4.250000
  Q     11.050000   19.100000    4.340000
  Q     10.190000   18.950000    4.190000
  Q     13.400000   17.160000   17.050000
  Q     12.740000   15.800000   17.670000
  Q     13.310000   16.500000   17.600000
  Q      1.890000   13.600000    5.580000
  Q      2.060000   12.470000    4.420000
  Q      2.300000   13.070000    5.030000
  Q      3.020000   10.230000    5.550000
  Q      3.470000    8.950000    6.240000
  Q      3.570000    9.760000    5.920000
  Q      6.750000    1.870000    8.600000
  Q      6.700000    1.190000    9.940000
  Q      6.990000    1.320000    9.170000
  Q     13.710000   13.500000    1.110000
  Q     13.590000   13.060000   -0.460000
  Q     13.710000   13.610000    0.210000
  Q     15.650000    4.810000   17.340000
  Q     16.740000    3.730000   17.550000
  Q     16.420000    4.450000   17.250000
  Q     15.940000   21.580000   10.880000
  Q     15.140000   20.990000   11.880000
  Q     15.780000   20.980000   11.370000
  Q     11.850000   20.530000   16.660000
  Q     10.420000   20.450000   16.050000
  Q     11.000000   20.370000   16.670000
  Q     13.390000    0.920000    7.410000
  Q     12.670000    2.040000    6.590000
  Q     13.300000    1.490000    6.790000
  Q     10.290000    7.890000   18.940000
  Q     10.160000    8.760000   20.120000
  Q      9.880000    8.190000   19.580000
  Q     13.470000   11.830000   17.170000
  Q     13.920000   10.630000   17.860000
  Q     13.780000   11.450000   17.780000
  Q     10.860000   16.190000   14.420000
  Q     10.230000   14.990000   13.750000
  Q     10.750000   15.640000   13.800000
  Q      6.260000   20.550000   10.670000
  Q      5.150000   21.400000   10.060000
  Q      5.610000   21.070000   10.680000
  Q      1.060000    8.830000   12.580000
  Q      0.700000    8.680000   14.160000
  Q      1.160000    8.570000   13.420000
  Q      6.650000    4.780000    9.760000
  Q      8.040000    4.970000    9.630000
  Q      7.310000    4.730000    9.370000
  Q      9.690000   12.410000    2.290000
  Q     10.960000   13.140000    2.490000
  Q     10.380000   12.780000    2.030000
  Q      1.430000   16.190000    6.130000
  Q      3.020000   16.590000    5.950000
  Q      2.140000   16.570000    5.790000
  Q     13.210000    5.170000   17.430000
  Q     14.260000    5.940000   18.270000
  Q     13.900000    5.680000   17.580000
  Q     15.040000    2.540000   11.160000
  Q     14.400000    2.940000    9.850000
  Q     14.580000    2.440000   10.500000
  Q     18.100000   16.530000   10.530000
  Q     18.520000   18.000000   10.850000
  Q     18.550000   17.250000   10.440000
  Q     11.080000   14.640000    4.450000
  Q     10.620000   15.750000    3.490000
  Q     10.710000   15.350000    4.250000
  Q      7.510000   10.440000   19.100000
  Q      8.300000   11.780000   19.590000
  Q      8.050000   11.130000   19.100000
  Q     16.030000   11.210000    6.250000
  Q     16.400000    9.860000    5.970000
  Q     15.890000   10.480000    5.970000
  Q     15.820000    2.400000    8.580000
  Q     14.940000    2.460000    7.430000
  Q     15.560000    2.740000    7.890000
  Q     20.320000   14.510000   10.820000
  Q     20.530000   13.320000   10.090000
  Q     20.130000   14.020000   10.210000
  Q     10.290000    7.150000    1.330000
  Q      9.820000    7.970000    0.150000
  Q      9.720000    7.570000    0.890000
  Q     13.590000    3.010000   16.470000
  Q     15.020000    2.370000   16.690000
  Q     14.170000    2.460000   16.790000
  Q      4.660000   13.340000   12.420000
  Q      4.310000   14.590000   13.000000
  Q      4.280000   13.790000   12.970000
  Q     11.600000   19.880000   11.200000
  Q     11.650000   18.440000   11.580000
  Q     11.780000   19.290000   11.700000
  Q     19.930000   15.580000    6.940000
  Q     19.680000   14.940000    8.310000
  Q     19.550000   15.490000    7.680000
  Q      9.950000    4.020000    5.980000
  Q     11.520000    4.140000    6.090000
  Q     10.760000    3.780000    5.870000
  Q     14.190000    2.430000   14.110000
  Q     14.850000    3.750000   13.680000
  Q     14.850000    2.950000   13.990000
  Q      4.210000    9.630000    2.330000
  Q      4.430000    8.960000    3.700000
  Q      4.000000    9.160000    3.010000
  Q     13.190000   20.440000   12.940000
  Q     13.180000   22.090000   13.180000
  Q     13.460000   21.220000   13.220000
  Q      5.800000   12.430000   16.550000
  Q      6.720000   12.140000   17.690000
  Q      6.240000   12.640000   17.200000
  Q     14.330000    9.440000    4.170000
  Q     13.250000    9.710000    3.060000
  Q     13.960000    9.870000    3.520000
  Q     16.840000    8.020000    4.730000
  Q     18.300000    7.900000    5.140000
  Q     17.650000    8.290000    4.820000
  Q      6.630000   16.420000   17.730000
  Q      5.140000   16.340000   17.230000
  Q      5.860000   16.730000   17.510000
  Q     11.720000    7.560000    4.510000
  Q     12.540000    8.410000    5.470000
  Q     12.450000    7.900000    4.800000
  Q     10.230000   15.020000   20.390000
  Q      8.950000   15.600000   19.610000
  Q      9.500000   15.010000   19.910000
  Q     12.030000    2.310000   14.230000
  Q     12.310000    2.360000   12.680000
  Q     12.450000    2.180000   13.480000
  Q     17.210000    4.350000   15.500000
  Q     16.650000    3.520000   14.350000
  Q     17.230000    4.020000   14.720000
  Q      4.160000    3.160000   10.670000
  Q      4.190000    3.820000    9.180000
  Q      3.970000    3.260000    9.810000
  Q      6.460000   21.090000   14.940000
  Q      7.050000   21.170000   13.430000
  Q      6.720000   21.480000   14.170000
  Q     15.440000   16.560000    1.100000
  Q     15.380000   17.010000    2.620000
  Q     15.760000   16.750000    1.880000
  Q      4.290000    9.900000    9.690000
  Q      3.980000   10.570000    8.320000
  Q      4.350000   10.510000    9.070000
  Q      4.680000    2.230000   15.690000
  Q      5.980000    1.920000   16.220000
  Q      5.180000    1.780000   16.120000
  Q     19.970000   12.260000    7.680000
  Q     21.340000   12.420000    7.090000
  Q     20.790000   12.340000    7.710000
  Q      7.890000    6.320000    6.130000
  Q      7.910000    5.170000    7.240000
  Q      8.230000    5.630000    6.600000
  Q     12.280000    8.560000   21.370000
  Q     12.060000   10.080000   21.070000
  Q     11.820000    9.250000   21.220000
  Q     17.370000    9.230000   20.230000
  Q     16.310000    8.340000   20.960000
  Q     16.990000    8.490000   20.480000
  Q     14.520000    7.360000   21.970000
  Q     14.080000    7.970000   20.570000
  Q     14.330000    7.990000   21.380000
  Q     17.310000    6.490000   19.900000
  Q     16.730000    5.560000   18.850000
  Q     16.900000    5.780000   19.620000
  Q      9.150000    7.840000    4.370000
  Q      9.910000    7.860000    3.050000
  Q      9.830000    7.790000    3.860000
  Q     10.530000   20.120000    9.100000
  Q     11.730000   21.130000    9.340000
  Q     11.060000   20.680000    9.550000
  Q      1.180000   14.830000   10.160000
  Q      1.680000   16.020000    9.290000
  Q      1.580000   15.190000    9.520000
  Q      4.590000   15.080000    7.900000
  Q      3.750000   15.090000    9.210000
  Q      4.460000   15.130000    8.730000
  Q      7.410000   16.260000    9.650000
  Q      7.180000   17.520000   10.520000
  Q      7.180000   16.680000   10.330000
  Q      0.920000   12.640000   10.740000
  Q      0.020000   12.310000    9.500000
  Q      0.250000   12.310000   10.340000
  Q     10.460000   11.220000   16.900000
  Q      9.480000   10.510000   17.800000
  Q     10.040000   10.540000   17.190000
  Q     11.060000    9.660000    1.270000
  Q     11.290000   10.900000    2.090000
  Q     11.260000   10.080000    1.950000
  Q     18.800000   10.900000   20.080000
  Q     17.930000   11.650000   19.040000
  Q     18.220000   10.960000   19.470000
  Q     13.620000   15.830000    8.130000
  Q     14.790000   16.430000    9.100000
  Q     14.350000   15.860000    8.610000
  Q     13.020000   19.810000    5.020000
  Q     13.150000   18.390000    4.910000
  Q     12.820000   19.040000    5.210000
  Q     16.310000   16.100000   14.700000
  Q     15.100000   17.010000   14.700000
  Q     15.650000   16.490000   14.370000
  Q     14.260000   -0.500000    9.460000
  Q     13.710000    0.900000    9.730000
  Q     13.680000    0.110000    9.410000
  Q      4.800000   17.620000    8.260000
  Q      3.340000   17.970000    8.650000
  Q      4.150000   18.150000    8.420000
  Q     16.530000    9.910000    1.210000
  Q     15.780000    9.700000    2.420000
  Q     16.430000    9.580000    1.940000
  Q      7.240000   14.430000   17.110000
  Q      8.130000   15.110000   16.140000
  Q      7.810000   14.980000   16.880000
  Q      8.140000   17.790000   18.960000
  Q      9.490000   17.830000   19.820000
  Q      8.700000   17.540000   19.570000
  Q     10.250000   17.590000    1.450000
  Q     10.360000   16.120000    1.280000
  Q     10.090000   16.840000    1.670000
  Q      7.390000   16.110000   14.110000
  Q      6.730000   16.640000   15.480000
  Q      7.170000   16.680000   14.740000
  Q     17.150000   12.830000    3.730000
  Q     17.090000   14.430000    3.630000
  Q     16.790000   13.620000    3.730000
  Q      4.910000    7.140000   14.810000
  Q      5.780000    5.890000   14.700000
  Q      5.070000    6.320000   14.820000
  Q      1.380000    6.110000   12.250000
  Q      0.400000    6.420000   11.020000
  Q      1.100000    6.120000   11.430000
  Q     18.160000   12.250000    6.020000
  Q     17.740000   13.120000    7.280000
  Q     18.000000   12.410000    6.870000
  Q      6.070000    8.930000    1.690000
  Q      5.450000    9.760000    0.530000
  Q      5.880000    9.660000    1.240000
  Q     15.220000   15.730000   18.140000
  Q     16.650000   15.130000   18.420000
  Q     16.100000   15.720000   18.170000
  Q      4.360000   10.010000   13.840000
  Q      3.160000    8.980000   13.760000
  Q      3.950000    9.270000   13.670000
  Q      9.160000    0.970000   17.620000
  Q     10.440000    0.260000   17.730000
  Q      9.980000    0.940000   17.720000
  Q      3.170000    5.960000   14.140000
  Q      1.860000    6.550000   14.290000
  Q      2.360000    5.940000   14.140000
  Q     18.340000   18.740000    5.590000
  Q     17.820000   17.360000    6.030000
  Q     18.320000   17.900000    5.620000
  Q     12.820000   13.150000    3.990000
  Q     11.680000   12.460000    4.580000
  Q     12.020000   13.020000    4.070000
  Q      3.670000   19.180000    5.240000
  Q      4.220000   18.710000    6.630000
  Q      4.230000   18.840000    5.770000
  Q     16.340000    6.900000    6.520000
  Q     17.110000    7.980000    7.510000
  Q     16.700000    7.230000    7.260000
  Q     17.590000   12.130000   11.080000
  Q     18.450000   12.830000   10.100000
  Q     17.970000   12.210000   10.360000
  Q     10.250000   14.940000   18.260000
  Q     10.720000   14.330000   16.840000
  Q     10.770000   14.850000   17.580000
  Q      4.730000   12.080000   10.110000
  Q      4.820000   13.560000    9.830000
  Q      4.920000   12.880000   10.330000
  Q      3.950000    5.860000   16.700000
  Q      3.720000    5.990000   18.130000
  Q      3.680000    6.230000   17.360000
  Q      8.080000    8.560000   18.420000
  Q      6.550000    8.870000   18.140000
  Q      7.380000    8.600000   17.970000
  Q      3.310000    8.020000   10.870000
  Q      3.650000    9.010000   11.800000
  Q      3.530000    8.760000   11.030000
  Q     13.810000   16.010000    3.990000
  Q     13.160000   16.870000    2.950000
  Q     13.720000   16.720000    3.550000
  Q     17.440000    8.850000   17.070000
  Q     16.630000    8.170000   15.860000
  Q     16.970000    8.240000   16.670000
  Q      4.980000    2.190000   12.990000
  Q      4.370000    3.410000   13.470000
  Q      4.780000    2.970000   12.920000
  Q      5.300000   10.210000    5.620000
  Q      6.180000   11.480000    5.720000
  Q      5.940000   10.720000    5.400000
  Q     13.080000    5.020000   20.610000
  Q     11.930000    5.110000   19.660000
  Q     12.510000    5.410000   20.160000
  Q      8.440000   13.730000   20.850000
  Q      8.650000   12.860000   22.100000
  Q      8.230000   13.060000   21.390000
  Q     15.240000    6.450000    3.990000
  Q     14.460000    7.220000    4.940000
  Q     15.150000    6.870000    4.690000
  Q      7.830000    1.600000   13.740000
  Q      8.530000    1.810000   12.280000
  Q      8.410000    1.880000   13.170000
  Q     18.030000    6.450000   17.360000
  Q     19.000000    5.260000   17.500000
  Q     18.770000    6.070000   17.530000
  Q      4.660000   19.130000   14.710000
  Q      4.920000   18.100000   13.630000
  Q      4.560000   18.790000   13.970000
  Q     14.290000   19.330000   15.600000
  Q     13.120000   18.600000   14.930000
  Q     13.800000   18.670000   15.420000
  Q      4.520000   12.530000    4.180000
  Q      5.620000   11.750000    3.750000
  Q      5.170000   12.410000    3.710000
  Q     10.730000    3.160000   17.940000
  Q     10.860000    4.670000   17.430000
  Q     10.930000    4.020000   18.000000
  Q      7.260000    4.020000   19.820000
  Q      6.050000    3.380000   19.360000
  Q      6.860000    3.380000   19.540000
  Q      7.320000   12.380000    2.770000
  Q      7.460000   11.170000    1.900000
  Q      7.710000   11.740000    2.460000
  Q     15.370000    5.650000   10.510000
  Q     14.900000    7.150000   10.530000
  Q     14.850000    6.310000   10.680000
  Q     17.830000   18.350000    8.680000
  Q     16.710000   18.380000    7.670000
  Q     17.230000   18.710000    8.250000
  Q     11.300000   16.480000   11.910000
  Q     11.640000   16.200000   10.420000
  Q     11.700000   16.590000   11.200000
  Q      4.640000   12.260000   14.470000
  Q      3.790000   11.580000   15.630000
  Q      4.460000   11.660000   15.070000
  Q     17.230000   14.220000   15.860000
  Q     18.450000   14.990000   15.010000
  Q     17.650000   14.850000   15.380000
  Q     18.930000    9.240000    7.430000
  Q     17.830000   10.450000    7.590000
  Q     18.180000    9.640000    7.620000
  Q     18.230000   13.430000   19.680000
  Q     18.540000   13.780000   18.190000
  Q     18.060000   13.480000   18.840000
  Q      8.250000   21.250000    6.480000
  Q      9.140000   20.310000    5.620000
  Q      8.870000   20.730000    6.320000
  Q     16.310000   11.580000   16.160000
  Q     15.460000   12.600000   16.950000
  Q     15.910000   12.310000   16.300000
  Q     18.670000   10.930000   15.820000
  Q     18.660000   10.500000   17.310000
  Q     18.320000   10.670000   16.560000
  Q      7.240000   14.870000   11.310000
  Q      6.500000   13.660000   11.160000
  Q      7.100000   14.100000   11.430000
  Q      5.210000   13.180000    1.650000
  Q      6.110000   13.500000    0.440000
  Q      5.360000   13.380000    0.860000
  Q      2.070000   13.650000   12.850000
  Q      0.620000   13.870000   12.890000
  Q      1.350000   13.900000   12.550000
  Q      4.830000   16.520000   11.130000
  Q      3.630000   16.800000   11.860000
  Q      4.400000   16.540000   11.810000
  Q     13.840000   17.110000   11.080000
  Q     14.990000   17.200000   12.120000
  Q     14.640000   17.210000   11.340000
  Q     17.530000    5.150000    9.980000
  Q     17.280000    3.790000   10.210000
  Q     17.080000    4.560000   10.300000
  Q      2.060000   10.620000   17.230000
  Q      2.460000   12.060000   17.480000
  Q      2.390000   11.350000   17.000000
  Q     12.790000    4.660000   14.720000
  Q     11.420000    4.250000   15.320000
  Q     12.260000    4.360000   15.310000
  Q     17.050000   13.720000   13.410000
  Q     17.980000   13.930000   12.310000
  Q     17.590000   13.470000   12.850000
  Q      8.630000    0.740000   10.030000
  Q      9.690000    0.060000   10.730000
  Q      9.220000    0.690000   10.610000
  Q     14.590000   20.180000    6.740000
  Q     15.580000   21.290000    7.370000
  Q     15.220000   20.810000    6.780000
  Q     14.360000   11.740000    3.010000
  Q     15.160000   12.920000    3.060000
  Q     14.500000   12.490000    2.820000
  Q     18.880000   11.650000    3.370000
  Q     17.680000   10.760000    3.640000
  Q     18.290000   11.300000    3.840000
  Q      8.200000   15.710000    7.440000
  Q      8.930000   15.120000    8.640000
  Q      8.270000   15.230000    8.120000
  Q      9.250000    4.810000   15.060000
  Q      9.190000    3.490000   14.170000
  Q      9.550000    4.120000   14.620000
  Q      6.330000    5.030000    4.520000
  Q      6.390000    6.360000    3.760000
  Q      6.120000    5.830000    4.370000
  Q     18.490000    9.090000    9.470000
  Q     19.110000    7.760000    9.880000
  Q     18.930000    8.580000    9.990000
  Q     10.490000    2.290000   10.800000
  Q     10.770000    3.730000   11.070000
  Q     10.980000    2.920000   10.930000
  Q      7.850000   16.960000    5.530000
  Q      9.240000   16.330000    5.630000
  Q      8.610000   16.790000    5.900000
  Q     13.490000    5.050000    9.820000
  Q     12.430000    3.940000    9.870000
  Q     13.000000    4.440000    9.480000
  Q      8.610000   21.140000   14.600000
  Q      9.610000   22.270000   14.260000
  Q      9.350000   21.500000   14.600000
  Q      4.430000   10.280000   17.760000
  Q      4.760000    9.810000   19.110000
  Q      4.950000    9.990000   18.310000
  Q     14.190000   14.840000   13.310000
  Q     12.720000   14.830000   12.900000
  Q     13.490000   14.510000   12.980000
  Q      7.320000    9.050000    5.350000
  Q      6.660000    7.630000    5.160000
  Q      7.260000    8.200000    5.390000
  Q      2.940000    6.710000    6.810000
  Q      3.610000    7.280000    8.040000
  Q      3.030000    7.250000    7.460000
  Q     11.070000   18.340000   16.340000
  Q     11.170000   16.920000   16.380000
  Q     11.210000   17.630000   15.980000
  Q      8.270000   19.560000   11.530000
  Q      8.670000   19.200000   10.040000
  Q      8.170000   19.520000   10.670000
  Q     11.140000   14.110000    0.730000
  Q     12.320000   14.950000    0.120000
  Q     11.510000   14.800000    0.360000
  Q     15.520000   19.300000    8.780000
  Q     14.670000   19.170000    9.960000
  Q     14.790000   19.210000    9.150000
  Q      9.150000   19.560000    7.680000
  Q      9.620000   18.180000    7.940000
  Q      9.380000   18.920000    8.170000
  Q     18.990000    8.090000   13.340000
  Q     18.600000    8.690000   11.940000
  Q     18.590000    8.610000   12.810000
  Q      6.290000    6.420000    1.800000
  Q      7.620000    7.090000    1.550000
  Q      6.940000    6.940000    1.980000
  Q     17.610000   15.300000    7.800000
  Q     16.040000   15.170000    7.480000
  Q     16.820000   14.930000    7.650000
  Q     13.870000    5.260000    5.870000
  Q     13.620000    5.050000    7.410000
  Q     13.410000    5.100000    6.560000
  Q      7.670000    3.020000   17.900000
  Q      8.230000    3.270000   16.450000
  Q      7.830000    2.840000   17.060000
  Q      8.350000    5.620000   20.890000
  Q      8.080000    6.600000   19.920000
  Q      7.830000    6.000000   20.390000

----------------------------
CARTESIAN COORDINATES (A.U.)
----------------------------
  NO LB      ZA    FRAG     MASS         X           Y           Z
   0 C     6.0000    0    12.011   21.694056   22.771200   18.557111
   1 H     1.0000    0     1.008   22.468844   20.919268   17.914604
   2 H     1.0000    0     1.008   23.489296   23.791652   19.199618
   3 C     6.0000    0    12.011   19.634255   22.733405   20.579118
   4 H     1.0000    0     1.008   19.237412   24.679823   21.183830
   5 H     1.0000    0     1.008   17.782323   22.166488   20.031097
   6 C     6.0000    0    12.011   20.465734   21.278316   23.035762
   7 H     1.0000    0     1.008   19.350796   22.015309   24.528645
   8 H     1.0000    0     1.008   22.544433   21.467289   23.564885
   9 C     6.0000    0    12.011   19.709844   18.443727   22.997967
  10 H     1.0000    0     1.008   21.316111   17.479967   21.864131
  11 H     1.0000    0     1.008   17.876809   17.971296   22.053104
  12 O     8.0000    0    15.999   19.558665   17.272097   25.511303
  13 H     1.0000    0     1.008   21.240522   16.572898   25.775864
  14 O     8.0000    0    15.999   20.654707   24.264084   16.478412
  15 H     1.0000    0     1.008   19.445282   23.300323   15.495754
  16 O     8.0000    0    15.999   17.309891   21.901926   13.020213
  17 H     1.0000    0     1.008   17.498864   20.409042   13.983973
  18 H     1.0000    0     1.008   15.684727   22.638919   13.606028
  19 O     8.0000    0    15.999   22.638919   16.572898   17.404378
  20 H     1.0000    0     1.008   22.468844   14.815453   16.931946
  21 H     1.0000    0     1.008   22.997967   17.290994   15.798110
  22 O     8.0000    0    15.999   28.308097   20.276761   24.623132
  23 H     1.0000    0     1.008   28.308097   22.053104   24.264084
  24 H     1.0000    0     1.008   28.156919   19.161823   23.224734
  25 O     8.0000    0    15.999   17.763426   17.234302   15.325679
  26 H     1.0000    0     1.008   17.253200   15.514652   14.853247
  27 H     1.0000    0     1.008   19.294104   17.120919   16.270542
  28 O     8.0000    0    15.999   25.360125   24.188495   13.322569
  29 H     1.0000    0     1.008   23.734960   24.282981   14.135151
  30 H     1.0000    0     1.008   26.531755   23.394810   14.437508
  31 O     8.0000    0    15.999   13.435953   13.568234   22.846789
  32 H     1.0000    0     1.008   13.454850   14.966631   21.731851
  33 H     1.0000    0     1.008   15.155604   13.435953   23.489296
  34 O     8.0000    0    15.999   24.868796   17.215405   27.835666
  35 H     1.0000    0     1.008   25.756967   18.840570   27.438823
  36 H     1.0000    0     1.008   26.097118   15.911494   27.382132
  37 O     8.0000    0    15.999   20.427940   11.886377   15.231193
  38 H     1.0000    0     1.008   19.520871   12.037555   13.700514
  39 H     1.0000    0     1.008   21.996412   10.828131   14.966631
  40 O     8.0000    0    15.999   20.409042   20.314556    9.278555
  41 H     1.0000    0     1.008   20.352350   19.161823    7.842363
  42 H     1.0000    0     1.008   18.594905   20.484631    9.694295
  43 O     8.0000    0    15.999   26.493960   16.535104   32.956824
  44 H     1.0000    0     1.008   25.662481   16.062672   31.407248
  45 H     1.0000    0     1.008   28.138022   15.930391   32.692262
  46 O     8.0000    0    15.999   18.443727   12.018658   24.339673
  47 H     1.0000    0     1.008   18.557111   13.171391   25.586892
  48 H     1.0000    0     1.008   18.613802   10.336802   25.114460
  49 O     8.0000    0    15.999   16.591795   15.514652   28.686043
  50 H     1.0000    0     1.008   17.593350   16.705179   27.608899
  51 H     1.0000    0     1.008   16.157158   16.421720   30.254515
  52 O     8.0000    0    15.999   27.079775   17.668939   20.049994
  53 H     1.0000    0     1.008   27.835666   18.821672   18.746083
  54 H     1.0000    0     1.008   25.473508   17.177611   19.180720
  55 O     8.0000    0    15.999   10.525775    9.864370   21.221624
  56 H     1.0000    0     1.008   10.336802    8.579357   22.525536
  57 H     1.0000    0     1.008   11.602918   11.206076   21.977515
  58 O     8.0000    0    15.999   15.628035   21.845234   28.610454
  59 H     1.0000    0     1.008   16.742974   20.881474   29.687598
  60 H     1.0000    0     1.008   14.248535   20.749193   28.251406
  61 O     8.0000    0    15.999   26.607344   25.530200   19.369693
  62 H     1.0000    0     1.008   26.078221   26.002632   21.013755
  63 H     1.0000    0     1.008   26.720728   27.041981   18.273652
  64 O     8.0000    0    15.999   25.454611   23.224734   28.723837
  65 H     1.0000    0     1.008   27.287645   23.205837   28.988399
  66 H     1.0000    0     1.008   25.133358   24.075111   27.212056
  67 O     8.0000    0    15.999   30.160029   15.835905   26.777419
  68 H     1.0000    0     1.008   31.671810   15.476857   25.775864
  69 H     1.0000    0     1.008   29.687598   17.555556   26.153810
  70 O     8.0000    0    15.999   29.120680   21.675159   17.007535
  71 H     1.0000    0     1.008   30.670255   22.468844   17.498864
  72 H     1.0000    0     1.008   27.741180   22.336563   18.065782
  73 O     8.0000    0    15.999   20.371248   24.604234   29.989954
  74 H     1.0000    0     1.008   22.090899   24.075111   29.668700
  75 H     1.0000    0     1.008   19.275207   24.075111   28.723837
  76 O     8.0000    0    15.999   13.681617   17.612248   19.105131
  77 H     1.0000    0     1.008   12.509987   18.538213   18.141371
  78 H     1.0000    0     1.008   15.174501   17.347686   18.065782
  79 O     8.0000    0    15.999   27.136467   27.967947   10.374596
  80 H     1.0000    0     1.008   26.531755   26.493960   11.319460
  81 H     1.0000    0     1.008   28.950604   27.835666   10.034446
  82 O     8.0000    0    15.999   16.213850   26.966392   26.588447
  83 H     1.0000    0     1.008   15.817008   25.379022   27.363234
  84 H     1.0000    0     1.008   15.174501   27.041981   25.057769
  85 O     8.0000    0    15.999   24.301878   18.349241   12.698960
  86 H     1.0000    0     1.008   23.262529   19.199618   11.489535
  87 H     1.0000    0     1.008   26.059323   19.161823   12.491090
  88 O     8.0000    0    15.999   12.869035   23.867241   14.361919
  89 H     1.0000    0     1.008   13.398158   25.586892   14.758761
  90 H     1.0000    0     1.008   11.413946   23.583782   15.420165
  91 O     8.0000    0    15.999   26.248296   11.036001   25.643584
  92 H     1.0000    0     1.008   27.703385   11.867480   26.399474
  93 H     1.0000    0     1.008   26.682933   11.527329   23.923933
  94 O     8.0000    0    15.999   20.257864   29.120680   17.177611
  95 H     1.0000    0     1.008   20.616912   27.268748   16.931946
  96 H     1.0000    0     1.008   21.278316   30.046646   15.873700
  97 Q     0.6645    0     0.000   36.528406   19.634255   26.172707
  98 Q     0.6645    0     0.000   35.413468   22.374357   25.662481
  99 Q    -1.3290    0     0.000   36.433920   21.278316   26.361680
 100 Q     0.6645    0     0.000    3.495993   16.289439   35.035523
 101 Q     0.6645    0     0.000    5.177850   15.420165   33.089105
 102 Q    -1.3290    0     0.000    3.987322   16.213850   33.580433
 103 Q     0.6645    0     0.000   37.926804   31.180481   21.864131
 104 Q     0.6645    0     0.000   40.742495   31.407248   22.657816
 105 Q    -1.3290    0     0.000   39.287406   30.764741   22.582227
 106 Q     0.6645    0     0.000   36.906351   10.204521   19.577563
 107 Q     0.6645    0     0.000   37.246502   10.998206   16.705179
 108 Q    -1.3290    0     0.000   36.698482   11.130487   18.216960
 109 Q     0.6645    0     0.000   10.676953   33.259180    9.354144
 110 Q     0.6645    0     0.000   10.903720   31.577324    7.010884
 111 Q    -1.3290    0     0.000   11.149384   31.974166    8.522665
 112 Q     0.6645    0     0.000   16.780768   36.339434   25.511303
 113 Q     0.6645    0     0.000   14.361919   34.695372   25.813659
 114 Q    -1.3290    0     0.000   15.231193   35.961488   25.303433
 115 Q     0.6645    0     0.000   25.171152   21.486186   37.359886
 116 Q     0.6645    0     0.000   26.645138   20.371248   39.533071
 117 Q    -1.3290    0     0.000   25.492406   21.202727   38.890564
 118 Q     0.6645    0     0.000   20.333453   14.909939   31.596221
 119 Q     0.6645    0     0.000   22.449946   13.473747   32.824543
 120 Q    -1.3290    0     0.000   20.957063   13.813898   32.503290
 121 Q     0.6645    0     0.000    9.845473   29.555317   10.582466
 122 Q     0.6645    0     0.000    8.258103   27.495515   10.639158
 123 Q    -1.3290    0     0.000    8.749432   28.723837   11.319460
 124 Q     0.6645    0     0.000   31.142687   27.703385   18.840570
 125 Q     0.6645    0     0.000   30.254515   29.725392   20.768090
 126 Q    -1.3290    0     0.000   31.274968   28.780529   20.031097
 127 Q     0.6645    0     0.000   14.531994   12.623371   28.950604
 128 Q     0.6645    0     0.000   13.398158   10.658055   30.745844
 129 Q    -1.3290    0     0.000   14.267432   11.168281   29.536419
 130 Q     0.6645    0     0.000    7.747877   10.487980   18.935056
 131 Q     0.6645    0     0.000    4.951082   10.847028   18.651597
 132 Q    -1.3290    0     0.000    6.443966   10.903720   18.160268
 133 Q     0.6645    0     0.000    6.878603   25.133358   36.547303
 134 Q     0.6645    0     0.000    8.636048   24.831001   34.147351
 135 Q    -1.3290    0     0.000    7.313240   25.284536   34.997728
 136 Q     0.6645    0     0.000   37.133119   12.169836   27.835666
 137 Q     0.6645    0     0.000   35.545749   13.624925   29.668700
 138 Q    -1.3290    0     0.000   36.641790   13.473747   28.515967
 139 Q     0.6645    0     0.000   19.067337   11.187179   21.108241
 140 Q     0.6645    0     0.000   19.331898   10.374596   18.141371
 141 Q    -1.3290    0     0.000   18.953953   10.223418   19.728741
 142 Q     0.6645    0     0.000   28.119125   31.426146   11.772994
 143 Q     0.6645    0     0.000   28.931707   33.561536   10.053343
 144 Q    -1.3290    0     0.000   28.969502   32.654468   11.357254
 145 Q     0.6645    0     0.000   23.092453   33.202488   13.322569
 146 Q     0.6645    0     0.000   22.506638   31.010406   11.621816
 147 Q    -1.3290    0     0.000   22.733405   31.709605   13.001316
 148 Q     0.6645    0     0.000   33.712714   36.547303   25.322330
 149 Q     0.6645    0     0.000   32.276522   37.529961   22.922378
 150 Q    -1.3290    0     0.000   33.485947   36.811865   23.734960
 151 Q     0.6645    0     0.000   33.126899   10.506877   13.795001
 152 Q     0.6645    0     0.000   32.163139    7.710083   14.021768
 153 Q    -1.3290    0     0.000   33.070207    8.919507   13.454850
 154 Q     0.6645    0     0.000   18.273652   34.506399    8.031336
 155 Q     0.6645    0     0.000   20.881474   36.093769    8.201411
 156 Q    -1.3290    0     0.000   19.256309   35.810310    7.917953
 157 Q     0.6645    0     0.000   25.322330   32.427700   32.219831
 158 Q     0.6645    0     0.000   24.075111   29.857673   33.391461
 159 Q    -1.3290    0     0.000   25.152255   31.180481   33.259180
 160 Q     0.6645    0     0.000    3.571582   25.700275   10.544672
 161 Q     0.6645    0     0.000    3.892836   23.564885    8.352590
 162 Q    -1.3290    0     0.000    4.346370   24.698721    9.505322
 163 Q     0.6645    0     0.000    5.706973   19.331898   10.487980
 164 Q     0.6645    0     0.000    6.557350   16.913049   11.791891
 165 Q    -1.3290    0     0.000    6.746322   18.443727   11.187179
 166 Q     0.6645    0     0.000   12.755651    3.533788   16.251645
 167 Q     0.6645    0     0.000   12.661165    2.248774   18.783878
 168 Q    -1.3290    0     0.000   13.209186    2.494438   17.328789
 169 Q     0.6645    0     0.000   25.908145   25.511303    2.097596
 170 Q     0.6645    0     0.000   25.681378   24.679823   -0.869274
 171 Q    -1.3290    0     0.000   25.908145   25.719173    0.396842
 172 Q     0.6645    0     0.000   29.574214    9.089583   32.767851
 173 Q     0.6645    0     0.000   31.634015    7.048678   33.164694
 174 Q    -1.3290    0     0.000   31.029303    8.409281   32.597776
 175 Q     0.6645    0     0.000   30.122235   40.780290   20.560220
 176 Q     0.6645    0     0.000   28.610454   39.665352   22.449946
 177 Q    -1.3290    0     0.000   29.819878   39.646454   21.486186
 178 Q     0.6645    0     0.000   22.393255   38.796078   31.482837
 179 Q     0.6645    0     0.000   19.690946   38.644899   30.330104
 180 Q    -1.3290    0     0.000   20.786987   38.493721   31.501735
 181 Q     0.6645    0     0.000   25.303433    1.738548   14.002871
 182 Q     0.6645    0     0.000   23.942830    3.855041   12.453295
 183 Q    -1.3290    0     0.000   25.133358    2.815692   12.831240
 184 Q     0.6645    0     0.000   19.445282   14.909939   35.791413
 185 Q     0.6645    0     0.000   19.199618   16.554001   38.021290
 186 Q    -1.3290    0     0.000   18.670494   15.476857   37.000838
 187 Q     0.6645    0     0.000   25.454611   22.355460   32.446598
 188 Q     0.6645    0     0.000   26.304988   20.087789   33.750509
 189 Q    -1.3290    0     0.000   26.040426   21.637364   33.599331
 190 Q     0.6645    0     0.000   20.522426   30.594666   27.249851
 191 Q     0.6645    0     0.000   19.331898   28.326995   25.983734
 192 Q    -1.3290    0     0.000   20.314556   29.555317   26.078221
 193 Q     0.6645    0     0.000   11.829686   38.833872   20.163378
 194 Q     0.6645    0     0.000    9.732090   40.440139   19.010645
 195 Q    -1.3290    0     0.000   10.601364   39.816530   20.182275
 196 Q     0.6645    0     0.000    2.003110   16.686282   23.772755
 197 Q     0.6645    0     0.000    1.322808   16.402823   26.758522
 198 Q    -1.3290    0     0.000    2.192082   16.194953   25.360125
 199 Q     0.6645    0     0.000   12.566679    9.032891   18.443727
 200 Q     0.6645    0     0.000   15.193398    9.391939   18.198063
 201 Q    -1.3290    0     0.000   13.813898    8.938405   17.706734
 202 Q     0.6645    0     0.000   18.311446   23.451501    4.327473
 203 Q     0.6645    0     0.000   20.711398   24.831001    4.705418
 204 Q    -1.3290    0     0.000   19.615357   24.150700    3.836144
 205 Q     0.6645    0     0.000    2.702308   30.594666   11.584021
 206 Q     0.6645    0     0.000    5.706973   31.350557   11.243870
 207 Q    -1.3290    0     0.000    4.044014   31.312762   10.941514
 208 Q     0.6645    0     0.000   24.963282    9.769884   32.937927
 209 Q     0.6645    0     0.000   26.947495   11.224973   34.525296
 210 Q    -1.3290    0     0.000   26.267193   10.733644   33.221385
 211 Q     0.6645    0     0.000   28.421481    4.799904   21.089344
 212 Q     0.6645    0     0.000   27.212056    5.555795   18.613802
 213 Q    -1.3290    0     0.000   27.552207    4.610932   19.842124
 214 Q     0.6645    0     0.000   34.204043   31.237173   19.898816
 215 Q     0.6645    0     0.000   34.997728   34.015070   20.503529
 216 Q    -1.3290    0     0.000   35.054420   32.597776   19.728741
 217 Q     0.6645    0     0.000   20.938166   27.665591    8.409281
 218 Q     0.6645    0     0.000   20.068892   29.763187    6.595144
 219 Q    -1.3290    0     0.000   20.238967   29.007296    8.031336
 220 Q     0.6645    0     0.000   14.191843   19.728741   36.093769
 221 Q     0.6645    0     0.000   15.684727   22.260974   37.019735
 222 Q    -1.3290    0     0.000   15.212295   21.032652   36.093769
 223 Q     0.6645    0     0.000   30.292310   21.183830   11.810788
 224 Q     0.6645    0     0.000   30.991509   18.632700   11.281665
 225 Q    -1.3290    0     0.000   30.027748   19.804330   11.281665
 226 Q     0.6645    0     0.000   29.895467    4.535343   16.213850
 227 Q     0.6645    0     0.000   28.232508    4.648726   14.040665
[...]
 323   Q   :   -0.146051305   -0.111068984    0.226384631
 324   Q   :    0.031467526    0.274593485   -0.063976450
 325   Q   :    0.108722769   -0.164042108   -0.165017406
 326   Q   :    0.029061973   -0.022227940   -0.268105438
 327   Q   :   -0.228795737   -0.015136096    0.147553681
 328   Q   :    0.210327646    0.045773145    0.127817855
 329   Q   :    0.082920988   -0.136353140   -0.241625521
 330   Q   :    0.000821710    0.263382509    0.046886809
 331   Q   :   -0.085448883   -0.118866785    0.195522860
 332   Q   :    0.236029805    0.119096399    0.114615336
 333   Q   :   -0.060047364    0.010184471   -0.275285717
 334   Q   :   -0.177007709   -0.131928465    0.154551208
 335   Q   :    0.125789309    0.229777256   -0.093558837
 336   Q   :   -0.197133828   -0.000093964    0.208099658
 337   Q   :    0.084339927   -0.241848948   -0.111451303
 338   Q   :   -0.075714508   -0.149508391   -0.269046074
 339   Q   :    0.011873254    0.281760125    0.036360276
 340   Q   :    0.063530386   -0.139560456    0.225456625
 341   Q   :    0.205143929   -0.004557008    0.215899505
 342   Q   :   -0.074256920    0.211543595   -0.118042197
 343   Q   :   -0.129628266   -0.211513059   -0.093165833
 344   Q   :   -0.223947011   -0.008577069   -0.138995175
 345   Q   :    0.126656442    0.172207672    0.147662899
 346   Q   :    0.098180254   -0.156514102   -0.010983356
 347   Q   :    0.087265380    0.281065776   -0.088232009
 348   Q   :    0.148931269   -0.256413949   -0.137790902
 349   Q   :   -0.232080470   -0.020671994    0.234391906
 350   Q   :    0.217436049   -0.123290250    0.116410808
 351   Q   :   -0.194747050    0.185162478    0.124324474
 352   Q   :   -0.021782942   -0.055967236   -0.242850916
 353   Q   :    0.219139492   -0.205616638    0.022328751
 354   Q   :    0.022051333    0.246598859    0.094676887
 355   Q   :   -0.245853896   -0.053112683   -0.118040666
 356   Q   :    0.201069138   -0.185385406   -0.060860578
 357   Q   :   -0.268943582   -0.081093509    0.071441666
 358   Q   :    0.065527625    0.267197887    0.003545883
 359   Q   :    0.019735833    0.146818159   -0.292229851
 360   Q   :   -0.247054067    0.061929241    0.162828283
 361   Q   :    0.234803042   -0.213684262    0.124404624
 362   Q   :   -0.210370957   -0.188911172    0.067927622
 363   Q   :    0.106331227    0.036790176   -0.284789096
 364   Q   :    0.115228017    0.152936692    0.215374692
 365   Q   :   -0.170330351    0.086851095   -0.202484259
 366   Q   :    0.244806544    0.095658552    0.067361342
 367   Q   :   -0.075621616   -0.171498592    0.137204519
 368   Q   :    0.082989029    0.307947103   -0.106743742
 369   Q   :    0.088197184   -0.207368993   -0.117499429
 370   Q   :   -0.182165282   -0.087769498    0.225806479
 371   Q   :    0.056495203   -0.179971545   -0.191829160
 372   Q   :   -0.146922759   -0.028494913    0.229347260
 373   Q   :    0.087700173    0.201038769   -0.039268086
 374   Q   :    0.114151877   -0.234811397   -0.007214774
 375   Q   :    0.106062193    0.248024526   -0.028643504
 376   Q   :   -0.214528991   -0.000945684    0.036960512
 377   Q   :   -0.047581712    0.285266710   -0.002124305
 378   Q   :    0.243555147   -0.144360967   -0.042346282
 379   Q   :   -0.192812683   -0.139724878    0.043315394
 380   Q   :    0.071484026    0.010272773    0.256721096
 381   Q   :   -0.235256226    0.107208992   -0.123333061
 382   Q   :    0.154815901   -0.115738796   -0.132048415
 383   Q   :    0.044717243   -0.034187709   -0.251473213
 384   Q   :   -0.074568305    0.220513552    0.119314582
 385   Q   :    0.033290872   -0.181135798    0.133032719
 386   Q   :    0.042998103   -0.219471474    0.121765764
 387   Q   :   -0.161271002    0.017560682   -0.254767791
 388   Q   :    0.117426915    0.204136256    0.127581053
 389   Q   :   -0.254705245   -0.023400533    0.000350161
 390   Q   :    0.181817966   -0.215778543    0.090653085
 391   Q   :    0.077604866    0.238466999   -0.090828912
 392   Q   :    0.118972658    0.233844856    0.045075205
 393   Q   :   -0.263599950   -0.087817282    0.031256569
 394   Q   :    0.159126293   -0.145812664   -0.073509540
 395   Q   :   -0.298508678   -0.018322491   -0.036986026
 396   Q   :    0.156047993   -0.273740551    0.000767299
 397   Q   :    0.141748191    0.280242472    0.037049975
 398   Q   :    0.303572480    0.025320290   -0.000079026
 399   Q   :   -0.189102569    0.255697714    0.061778185
 400   Q   :   -0.120398431   -0.287534206   -0.057415562
 401   Q   :   -0.007093215    0.300089453   -0.003744893
 402   Q   :   -0.183973086   -0.178153837    0.150157995
 403   Q   :    0.192967378   -0.120061925   -0.145998730
 404   Q   :    0.296442101    0.043580188   -0.013691043
 405   Q   :   -0.099411112   -0.184777351    0.183602868
 406   Q   :   -0.184507756    0.138698130   -0.156803564
 407   Q   :   -0.204553320    0.122492803   -0.178059462
 408   Q   :   -0.013612060   -0.039541782    0.248672172
 409   Q   :    0.210195763   -0.072991224   -0.081210841
 410   Q   :   -0.093777543   -0.088423372   -0.219269048
 411   Q   :    0.117676925    0.207040878    0.059547906
 412   Q   :   -0.031967064   -0.115140506    0.165632397
 413   Q   :   -0.144830752   -0.016208447    0.269377762
 414   Q   :    0.161340663    0.231026707   -0.083384478
 415   Q   :   -0.013662075   -0.224580523   -0.185911745
 416   Q   :   -0.165002834    0.029117021    0.205655501
 417   Q   :   -0.017501442   -0.126320948   -0.189293258
 418   Q   :    0.177904151    0.100942394   -0.016787231
 419   Q   :   -0.061191197   -0.240947703   -0.079554375
 420   Q   :   -0.037139968    0.205836347   -0.172165627
 421   Q   :    0.091450426    0.029837514    0.254075547
 422   Q   :    0.113467407   -0.168067681   -0.242780913
 423   Q   :    0.025357169   -0.110989134    0.305837899
 424   Q   :   -0.137951325    0.267780494   -0.060650072
 425   Q   :    0.234674446   -0.001581702    0.170949356
 426   Q   :   -0.223260547    0.077545959    0.071576895
 427   Q   :   -0.012490870   -0.083199149   -0.241323587
 428   Q   :   -0.094337849   -0.313179438   -0.044551182
 429   Q   :    0.030276751    0.073890238    0.276214344
 430   Q   :    0.051479509    0.232035947   -0.230783620
 431   Q   :    0.015401076   -0.237737792    0.131471387
 432   Q   :   -0.205770721    0.042319666   -0.213118922
 433   Q   :    0.180568459    0.191564928    0.074261363
 434   Q   :    0.147627622    0.189022451    0.123049950
 435   Q   :   -0.091525369   -0.018861421   -0.227935041
 436   Q   :   -0.051089949   -0.169793800    0.119124339
 437   Q   :    0.071594300   -0.308504603    0.048751483
 438   Q   :   -0.152504455    0.149664489    0.226873735
 439   Q   :    0.081560000    0.149693878   -0.266352067
 440   Q   :   -0.196846660   -0.160354225    0.075206585
 441   Q   :    0.063425331    0.244303490    0.105090333
 442   Q   :    0.145954627   -0.083136688   -0.179736655
 443   Q   :    0.213526690   -0.161312910    0.166053252
 444   Q   :   -0.202645988   -0.122485303   -0.175655732
 445   Q   :   -0.010583107    0.287989473    0.015942730
 446   Q   :    0.066701710    0.185854399   -0.137705467
 447   Q   :    0.159495353   -0.055243585    0.244140555
 448   Q   :   -0.234648536   -0.135578864   -0.091266970
 449   Q   :    0.015971988   -0.152736043   -0.264243770
 450   Q   :   -0.254446163    0.125446742    0.081936309
 451   Q   :    0.239619788    0.019389847    0.176688325
 452   Q   :   -0.206105817   -0.094768317    0.183419129
 453   Q   :    0.012598012   -0.017375402   -0.240356272
 454   Q   :    0.186105417    0.107918417    0.054860161
 455   Q   :   -0.250797134    0.108328785   -0.065843287
 456   Q   :    0.067177125   -0.295107757   -0.019177734
 457   Q   :    0.192274822    0.177957435    0.088946751
 458   Q   :    0.052302373    0.116788700    0.296447826
 459   Q   :    0.131071574   -0.237327288   -0.092649782
 460   Q   :   -0.180762913    0.126064707   -0.201377240
 461   Q   :    0.163329996    0.241448338    0.055398262
 462   Q   :   -0.227428513   -0.005199104   -0.177632771
 463   Q   :    0.064281358   -0.226261567    0.119766381
 464   Q   :   -0.246106669    0.029538382    0.191401881
 465   Q   :    0.167716933   -0.259195658    0.019381966
 466   Q   :    0.075478214    0.234111357   -0.211900854
 467   Q   :   -0.062184930   -0.240372870   -0.031691325
 468   Q   :   -0.026706950    0.197706045   -0.193745417
 469   Q   :    0.085355747    0.039801936    0.219517721
 470   Q   :    0.139924105    0.255715701    0.102769743
 471   Q   :   -0.297046222    0.023657310   -0.065681658
 472   Q   :    0.150823213   -0.287238515   -0.024798878
 473   Q   :   -0.163429758    0.249159363    0.110708079
 474   Q   :   -0.093354456   -0.185085292   -0.197209756
 475   Q   :    0.256613304   -0.064891163    0.086449473
 476   Q   :    0.156969097   -0.202333982   -0.062316074
 477   Q   :    0.024713856    0.267097477   -0.055088499
 478   Q   :   -0.182945065   -0.056484231    0.113368318
 479   Q   :    0.214881070   -0.144163311    0.146517038
 480   Q   :   -0.170944553   -0.123745927   -0.190675206
 481   Q   :   -0.030165970    0.271213748    0.042770972
 482   Q   :   -0.149446739   -0.040555012    0.251964247
 483   Q   :   -0.009210800   -0.114512308   -0.219843246
 484   Q   :    0.165204526    0.151706605   -0.038941054
 485   Q   :    0.053464779    0.185727687   -0.179929791
 486   Q   :   -0.189738751   -0.009855824    0.157376935
 487   Q   :    0.146068822   -0.178741051    0.021555099
 488   Q   :   -0.105650973   -0.181970768    0.132244153
 489   Q   :    0.237994514    0.032361337   -0.106878953
 490   Q   :   -0.120045925    0.149891990   -0.015609779
 491   Q   :    0.237861036   -0.127178453   -0.061579648
 492   Q   :   -0.099758114    0.227518641   -0.011598663
 493   Q   :   -0.136824718   -0.096341146    0.066330251
 494   Q   :    0.072758737   -0.017336312    0.272747985
 495   Q   :    0.167701912    0.099261398   -0.196646764
 496   Q   :   -0.238830908   -0.075853038   -0.079379278
 497   Q   :   -0.240296548    0.193217686    0.047550021
 498   Q   :    0.069283442   -0.125894657   -0.223211028
 499   Q   :    0.164985539   -0.051360949    0.168197369
 500   Q   :    0.116776801   -0.247527416   -0.045051948
 501   Q   :   -0.155555541    0.094682365    0.216849700
 502   Q   :    0.047914951    0.154522925   -0.167664057
 503   Q   :    0.118306969    0.080915569   -0.217705288
 504   Q   :    0.131713440   -0.060018350    0.254124494
 505   Q   :   -0.246466273   -0.021458356   -0.033855486
 506   Q   :    0.046372782    0.309223044   -0.046900661
 507   Q   :   -0.249662208   -0.161979953   -0.111869909
 508   Q   :    0.208116860   -0.154389377    0.158704706
 509   Q   :   -0.033234756   -0.071704285    0.287130340
 510   Q   :    0.252823710    0.034098332   -0.120267240
 511   Q   :   -0.218741956    0.040323514   -0.173882795
 512   Q   :    0.249664894   -0.101333413    0.126786038
 513   Q   :   -0.287333500   -0.019678492    0.151720957
 514   Q   :    0.031639539    0.121917396   -0.268750631
 515   Q   :    0.142017101   -0.002367505   -0.280665050
 516   Q   :   -0.301098928    0.099229338   -0.005633832
 517   Q   :    0.153401912   -0.093125153    0.278956668
 518   Q   :   -0.263561761   -0.038122740   -0.079309627
 519   Q   :    0.102295888   -0.011054412    0.256224546
 520   Q   :    0.162234364    0.057556367   -0.179692820
 521   Q   :    0.182971479    0.205543678   -0.128259509
 522   Q   :    0.100646266   -0.310916162   -0.050352339
 523   Q   :   -0.279967981    0.095106883    0.182533951
 524   Q   :   -0.116823871   -0.242233897    0.101994865
 525   Q   :    0.013059163    0.209440156    0.165148177
 526   Q   :    0.085410093    0.035055014   -0.262348387
 527   Q   :    0.162943446    0.095961034   -0.200614245
 528   Q   :   -0.276780053   -0.031280511    0.001251665
 529   Q   :    0.117721732   -0.060278058    0.202363321
 530   Q   :   -0.205908836    0.106474902    0.202041152
 531   Q   :    0.147404397    0.189521973   -0.202125040
 532   Q   :    0.054817710   -0.289740630    0.000411759
 533   Q   :   -0.197633465   -0.005957880   -0.195656188
 534   Q   :    0.184490944   -0.272969096    0.036134125
 535   Q   :    0.019896081    0.261528310    0.161750398
 536   Q   :   -0.187989407   -0.180238970   -0.008451143
 537   Q   :    0.120268900    0.170875796    0.222260705
 538   Q   :    0.069559207    0.014475118   -0.215722311
 539   Q   :   -0.040520480   -0.305434199    0.084756070
 540   Q   :    0.230368683    0.131207706    0.089645289
 541   Q   :   -0.188374394    0.170659131   -0.181103285
 542   Q   :    0.204706944    0.130836401   -0.184327982
 543   Q   :   -0.209922904   -0.165551909   -0.085168465
 544   Q   :    0.011105505    0.027058348    0.268831654
 545   Q   :   -0.020175169    0.162276379   -0.227783166
 546   Q   :    0.209487180   -0.033063301    0.164639618
 547   Q   :   -0.192852795   -0.137002999    0.066121575
 548   Q   :   -0.086513771    0.201331088    0.128788867
 549   Q   :   -0.126783827   -0.186279954   -0.135386810
 550   Q   :    0.216615596   -0.023079968    0.010088565
 551   Q   :    0.084569476   -0.280295567    0.037302478
 552   Q   :    0.092155704    0.165867996   -0.193688170
 553   Q   :   -0.189023130    0.099075664    0.164651666
 554   Q   :   -0.147333250    0.148674702   -0.175713243
 555   Q   :    0.049810762   -0.263215908   -0.051158100
 556   Q   :    0.101673330    0.125251405    0.222831955
 557   Q   :   -0.199257087   -0.228136764   -0.046738640
 558   Q   :   -0.069965265    0.255430622    0.052159863
 559   Q   :    0.272150299   -0.037372372    0.001408212
 560   Q   :   -0.231796583    0.045647155   -0.123894449
 561   Q   :    0.216754735   -0.168152474   -0.105184082
 562   Q   :    0.017742058    0.135397989    0.230280447
 563   Q   :    0.153071185    0.191032533    0.115054761
 564   Q   :   -0.174794692   -0.146099878    0.135043404
 565   Q   :    0.016736617   -0.047757456   -0.253401103
 566   Q   :   -0.270443605   -0.133148452   -0.005952131
 567   Q   :    0.070362112    0.235910500   -0.108882804
 568   Q   :    0.204750841   -0.097017559    0.110102684
 569   Q   :   -0.216523598    0.111228640   -0.194110783
 570   Q   :   -0.082144460   -0.059944187    0.276113046
 571   Q   :    0.289286069   -0.044624437   -0.084411714
 572   Q   :    0.233641353    0.116577848    0.112007844
 573   Q   :   -0.257044650    0.115382710   -0.027988100
 574   Q   :    0.024031545   -0.229325190   -0.083137492
 575   Q   :    0.017960204    0.270406234   -0.021895291
 576   Q   :   -0.195099731   -0.172143589   -0.080892346
 577   Q   :    0.178869810   -0.087504233    0.104328130
 578   Q   :   -0.013718552   -0.183744849   -0.227261720
 579   Q   :    0.233948826    0.014414803    0.194906798
 580   Q   :   -0.219016205    0.167742596    0.036007707
 581   Q   :   -0.057201149    0.256774769    0.154230964
 582   Q   :   -0.019397633   -0.256856176    0.159338630
 583   Q   :    0.076221118    0.000670113   -0.314830101
 584   Q   :    0.047143351    0.009300871    0.258894439
 585   Q   :    0.162355229   -0.109539733   -0.177585435
 586   Q   :   -0.196371380    0.108355382   -0.080140253
 587   Q   :   -0.100382698   -0.211097942    0.118495012
 588   Q   :    0.255849010    0.053443616   -0.070136695
 589   Q   :   -0.149134576    0.166708003   -0.061162553
 590   Q   :    0.260518830    0.036790180   -0.123786852
 591   Q   :   -0.032916056   -0.009096472    0.304532123
 592   Q   :   -0.240843541   -0.023699281   -0.179023554
 593   Q   :   -0.068387927    0.197076978   -0.159325151
 594   Q   :    0.097811827   -0.282587765   -0.098949568
 595   Q   :   -0.031441616    0.065854793    0.257878254
 596   Q   :    0.138183875   -0.183554264    0.160571297
 597   Q   :    0.004168723    0.010631318   -0.246512954
 598   Q   :   -0.141557240    0.172285910    0.080223654
 599   Q   :   -0.211001539   -0.175629657   -0.068384626
 600   Q   :    0.238077884    0.044256759   -0.172922705
 601   Q   :   -0.023236254    0.129497907    0.235351997
 602   Q   :    0.210076438    0.107424215    0.042053301
 603   Q   :   -0.272052135    0.091361061   -0.070457897
 604   Q   :    0.047728444   -0.193650002    0.021889366
 605   Q   :    0.168019731    0.058344299   -0.234229663
 606   Q   :    0.071082947   -0.002245697    0.248963001
 607   Q   :   -0.228795293   -0.048515458   -0.022470015
 608   Q   :   -0.038805208    0.068876843    0.233090766
 609   Q   :    0.133526754    0.160602528   -0.204684653
 610   Q   :   -0.085716708   -0.223676677   -0.036263278
 611   Q   :    0.212338994   -0.140013543    0.182584121
 612   Q   :    0.114063601    0.230868394   -0.180538648
 613   Q   :   -0.330360184   -0.085937657    0.000011797

Difference to translation invariance:
           :    0.0011462481    0.0008668764   -0.0006941286

Difference to rotation invariance:
           :   -0.0316991003    0.0422581506   -0.0082281173

Norm of the cartesian gradient     ...    6.3443625852
RMS gradient                       ...    0.1479439230
MAX gradient                       ...    0.3303601845

-------
TIMINGS
-------

Total SCF gradient time            ...      170.841 sec

One electron gradient       ....      23.291 sec  ( 13.6%)
RI-J Coulomb gradient       ....       9.186 sec  (  5.4%)
COSX gradient               ....     104.788 sec  ( 61.3%)
XC gradient                 ....      14.596 sec  (  8.5%)

Maximum memory used throughout the entire SCFGRAD-calculation: 684.9 MB

                            ***************************************
                            *     ORCA property calculations      *
                            ***************************************

                                    ---------------------
                                    Active property flags
                                    ---------------------
   (+) Dipole Moment


------------------------------------------------------------------------------
                       ORCA ELECTRIC PROPERTIES CALCULATION
------------------------------------------------------------------------------

Dipole Moment Calculation                       ... on
Quadrupole Moment Calculation                   ... off
Polarizability Calculation                      ... off
GBWName                                         ... final027.orca.gbw
Electron density                                ... final027.orca.scfp
The origin for moment calculation is the CENTER OF MASS  = (21.240167, 19.620944 20.871543)

-------------
DIPOLE MOMENT
-------------
                                X             Y             Z
Electronic contribution:     -0.17902      -0.26084      -0.40104
Nuclear contribution   :     -4.91204       0.31537      -7.80921
                        -----------------------------------------
Total Dipole Moment    :     -5.09106       0.05453      -8.21025
                        -----------------------------------------
Magnitude (a.u.)       :      9.66075
Magnitude (Debye)      :     24.55568



--------------------
Rotational spectrum 
--------------------
 
Rotational constants in cm-1:     0.002209     0.001745     0.001504 
Rotational constants in MHz :    66.226408    52.327330    45.078918 

 Dipole components along the rotational axes: 
x,y,z [a.u.] :    -7.369338    -6.241417    -0.260228 
x,y,z [Debye]:   -18.731368   -15.864422    -0.661447 

 

Timings for individual modules:

Sum of individual times         ...      748.730 sec (=  12.479 min)
GTO integral calculation        ...       12.254 sec (=   0.204 min)   1.6 %
SCF iterations                  ...      561.227 sec (=   9.354 min)  75.0 %
SCF Gradient evaluation         ...      175.249 sec (=   2.921 min)  23.4 %
                             ****ORCA TERMINATED NORMALLY****
TOTAL RUN TIME: 0 days 0 hours 12 minutes 36 seconds 43 msec
