
                                 *****************
                                 * O   R   C   A *
                                 *****************

                                            #,                                       
                                            ###                                      
                                            ####                                     
                                            #####                                    
                                            ######                                   
                                           ########,                                 
                                     ,,################,,,,,                         
                               ,,#################################,,                 
                          ,,##########################################,,             
                       ,#########################################, ''#####,          
                    ,#############################################,,   '####,        
                  ,##################################################,,,,####,       
                ,###########''''           ''''###############################       
              ,#####''   ,,,,##########,,,,          '''####'''          '####       
            ,##' ,,,,###########################,,,                        '##       
           ' ,,###''''                  '''############,,,                           
         ,,##''                                '''############,,,,        ,,,,,,###''
      ,#''                                            '''#######################'''  
     '                                                          ''''####''''         
             ,#######,   #######,   ,#######,      ##                                
            ,#'     '#,  ##    ##  ,#'     '#,    #''#        ######   ,####,        
            ##       ##  ##   ,#'  ##            #'  '#       #        #'  '#        
            ##       ##  #######   ##           ,######,      #####,   #    #        
            '#,     ,#'  ##    ##  '#,     ,#' ,#      #,         ##   #,  ,#        
             '#######'   ##     ##  '#######'  #'      '#     #####' # '####'        



                  #######################################################
                  #                        -***-                        #
                  #          Department of theory and spectroscopy      #
                  #    Directorship and core code : Frank Neese         #
                  #        Max Planck Institute fuer Kohlenforschung    #
                  #                Kaiser Wilhelm Platz 1               #
                  #                 D-45470 Muelheim/Ruhr               #
                  #                      Germany                        #
                  #                                                     #
                  #                  All rights reserved                #
                  #                        -***-                        #
                  #######################################################


                         Program Version 5.0.3 -  RELEASE  -


 With contributions from (in alphabetic order):
   Daniel Aravena         : Magnetic Suceptibility
   Michael Atanasov       : Ab Initio Ligand Field Theory (pilot matlab implementation)
   Alexander A. Auer      : GIAO ZORA, VPT2 properties, NMR spectrum
   Ute Becker             : Parallelization
   Giovanni Bistoni       : ED, misc. LED, open-shell LED, HFLD
   Martin Brehm           : Molecular dynamics
   Dmytro Bykov           : SCF Hessian
   Vijay G. Chilkuri      : MRCI spin determinant printing, contributions to CSF-ICE
   Dipayan Datta          : RHF DLPNO-CCSD density
   Achintya Kumar Dutta   : EOM-CC, STEOM-CC
   Dmitry Ganyushin       : Spin-Orbit,Spin-Spin,Magnetic field MRCI
   Miquel Garcia          : C-PCM and meta-GGA Hessian, CC/C-PCM, Gaussian charge scheme
   Yang Guo               : DLPNO-NEVPT2, F12-NEVPT2, CIM, IAO-localization
   Andreas Hansen         : Spin unrestricted coupled pair/coupled cluster methods
   Benjamin Helmich-Paris : MC-RPA, TRAH-SCF, COSX integrals
   Lee Huntington         : MR-EOM, pCC
   Robert Izsak           : Overlap fitted RIJCOSX, COSX-SCS-MP3, EOM
   Marcus Kettner         : VPT2
   Christian Kollmar      : KDIIS, OOCD, Brueckner-CCSD(T), CCSD density, CASPT2, CASPT2-K
   Simone Kossmann        : Meta GGA functionals, TD-DFT gradient, OOMP2, MP2 Hessian
   Martin Krupicka        : Initial AUTO-CI
   Lucas Lang             : DCDCAS
   Marvin Lechner         : AUTO-CI (C++ implementation), FIC-MRCC
   Dagmar Lenk            : GEPOL surface, SMD
   Dimitrios Liakos       : Extrapolation schemes; Compound Job, initial MDCI parallelization
   Dimitrios Manganas     : Further ROCIS development; embedding schemes
   Dimitrios Pantazis     : SARC Basis sets
   Anastasios Papadopoulos: AUTO-CI, single reference methods and gradients
   Taras Petrenko         : DFT Hessian,TD-DFT gradient, ASA, ECA, R-Raman, ABS, FL, XAS/XES, NRVS
   Peter Pinski           : DLPNO-MP2, DLPNO-MP2 Gradient
   Christoph Reimann      : Effective Core Potentials
   Marius Retegan         : Local ZFS, SOC
   Christoph Riplinger    : Optimizer, TS searches, QM/MM, DLPNO-CCSD(T), (RO)-DLPNO pert. Triples
   Tobias Risthaus        : Range-separated hybrids, TD-DFT gradient, RPA, STAB
   Michael Roemelt        : Original ROCIS implementation
   Masaaki Saitow         : Open-shell DLPNO-CCSD energy and density
   Barbara Sandhoefer     : DKH picture change effects
   Avijit Sen             : IP-ROCIS
   Kantharuban Sivalingam : CASSCF convergence, NEVPT2, FIC-MRCI
   Bernardo de Souza      : ESD, SOC TD-DFT
   Georgi Stoychev        : AutoAux, RI-MP2 NMR, DLPNO-MP2 response
   Willem Van den Heuvel  : Paramagnetic NMR
   Boris Wezisla          : Elementary symmetry handling
   Frank Wennmohs         : Technical directorship


 We gratefully acknowledge several colleagues who have allowed us to
 interface, adapt or use parts of their codes:
   Stefan Grimme, W. Hujo, H. Kruse, P. Pracht,  : VdW corrections, initial TS optimization,
                  C. Bannwarth, S. Ehlert          DFT functionals, gCP, sTDA/sTD-DF
   Ed Valeev, F. Pavosevic, A. Kumar             : LibInt (2-el integral package), F12 methods
   Garnet Chan, S. Sharma, J. Yang, R. Olivares  : DMRG
   Ulf Ekstrom                                   : XCFun DFT Library
   Mihaly Kallay                                 : mrcc  (arbitrary order and MRCC methods)
   Jiri Pittner, Ondrej Demel                    : Mk-CCSD
   Frank Weinhold                                : gennbo (NPA and NBO analysis)
   Christopher J. Cramer and Donald G. Truhlar   : smd solvation model
   Lars Goerigk                                  : TD-DFT with DH, B97 family of functionals
   V. Asgeirsson, H. Jonsson                     : NEB implementation
   FAccTs GmbH                                   : IRC, NEB, NEB-TS, DLPNO-Multilevel, CI-OPT
                                                   MM, QMMM, 2- and 3-layer-ONIOM, Crystal-QMMM,
                                                   LR-CPCM, SF, NACMEs, symmetry and pop. for TD-DFT,
                                                   nearIR, NL-DFT gradient (VV10), updates on ESD,
                                                   ML-optimized integration grids
   S Lehtola, MJT Oliveira, MAL Marques          : LibXC Library
   Liviu Ungur et al                             : ANISO software


 Your calculation uses the libint2 library for the computation of 2-el integrals
 For citations please refer to: http://libint.valeyev.net

 Your ORCA version has been built with support for libXC version: 5.1.0
 For citations please refer to: https://tddft.org/programs/libxc/

 This ORCA versions uses:
   CBLAS   interface :  Fast vector & matrix operations
   LAPACKE interface :  Fast linear algebra routines
   SCALAPACK package :  Parallel linear algebra routines
   Shared memory     :  Shared parallel matrices
   BLAS/LAPACK       :  OpenBLAS 0.3.15  USE64BITINT DYNAMIC_ARCH NO_AFFINITY SkylakeX SINGLE_THREADED
        Core in use  :  SkylakeX
   Copyright (c) 2011-2014, The OpenBLAS Project


================================================================================

----- Orbital basis set information -----
Your calculation utilizes the basis: def2-SVP
   F. Weigend and R. Ahlrichs, Phys. Chem. Chem. Phys. 7, 3297 (2005).

The basis set includes element-specific modifications.

Your calculation utilizes the basis: aug-cc-pVTZ 
    H, B-Ne : Obtained from the ccRepo (grant-hill.group.shef.ac.uk/ccrepo) Feb. 2017
              R. A. Kendall, T. H. Dunning, Jr., R. J. Harrison, J. Chem. Phys. 96, 6796 (1992)
         He : Obtained from the ccRepo (grant-hill.group.shef.ac.uk/ccrepo) Feb. 2017
              D. E. Woon, T. H. Dunning, Jr., J. Chem. Phys. 100, 2975 (1994)
  Li-Be, Na : Obtained from the ccRepo (grant-hill.group.shef.ac.uk/ccrepo) Feb. 2017
              B. P. Prascher, D. E. Woon, K. A. Peterson, T. H. Dunning, Jr., A. K. Wilson, Theor. Chem. Acc. 128, 69 (2011)
         Mg : Obtained from the Peterson Research Group Website (tyr0.chem.wsu.edu/~kipeters) Feb. 2017
              B. P. Prascher, D. E. Woon, K. A. Peterson, T. H. Dunning, Jr., A. K. Wilson, Theor. Chem. Acc. 128, 69 (2011)
      Al-Ar : Obtained from the ccRepo (grant-hill.group.shef.ac.uk/ccrepo) Feb. 2017
              D. E. Woon, T. H. Dunning, Jr., J. Chem. Phys. 98, 1358 (1993)
      Sc-Zn : Obtained from the ccRepo (grant-hill.group.shef.ac.uk/ccrepo) Feb. 2017
              N. B. Balabanov, K. A. Peterson, J. Chem. Phys. 123, 064107 (2005)
              N. B. Balabanov, K. A. Peterson, J. Chem. Phys. 125, 074110 (2006)
      Ga-Kr : Obtained from the ccRepo (grant-hill.group.shef.ac.uk/ccrepo) Feb. 2017
              A. K. Wilson, D. E. Woon, K. A. Peterson, T. H. Dunning, Jr., J. Chem. Phys. 110, 7667 (1999)
     Ag, Au : Obtained from the Peterson Research Group Website (tyr0.chem.wsu.edu/~kipeters) Feb. 2017
              K. A. Peterson, C. Puzzarini, Theor. Chem. Acc. 114, 283 (2005)

Your calculation utilizes the basis: cc-pVTZ 
       H, B-Ne : Obtained from the ccRepo (grant-hill.group.shef.ac.uk/ccrepo) Feb. 2017
                 T. H. Dunning, Jr., J. Chem. Phys. 90, 1007 (1989)
            He : Obtained from the ccRepo (grant-hill.group.shef.ac.uk/ccrepo) Feb. 2017
                 D. E. Woon, T. H. Dunning, Jr., J. Chem. Phys. 100, 2975 (1994)
  Li-Be, Na-Mg : Obtained from the ccRepo (grant-hill.group.shef.ac.uk/ccrepo) Feb. 2017
                 B. P. Prascher, D. E. Woon, K. A. Peterson, T. H. Dunning, Jr., A. K. Wilson, Theor. Chem. Acc. 128, 69 (2011)
         Al-Ar : Obtained from the ccRepo (grant-hill.group.shef.ac.uk/ccrepo) Feb. 2017
                 D. E. Woon, T. H. Dunning, Jr., J. Chem. Phys. 98, 1358 (1993)
            Ca : Obtained from the Peterson Research Group Website (tyr0.chem.wsu.edu/~kipeters) Feb. 2017
                 J. Koput, K. A. Peterson, J. Phys. Chem. 106, 9595 (2002)
         Sc-Zn : Obtained from the ccRepo (grant-hill.group.shef.ac.uk/ccrepo) Feb. 2017
                 N. B. Balabanov, K. A. Peterson, J. Chem. Phys. 123, 064107 (2005)
                 N. B. Balabanov, K. A. Peterson, J. Chem. Phys. 125, 074110 (2006)
         Ga-Kr : Obtained from the ccRepo (grant-hill.group.shef.ac.uk/ccrepo) Feb. 2017
                 A. K. Wilson, D. E. Woon, K. A. Peterson, T. H. Dunning, Jr., J. Chem. Phys. 110, 7667 (1999)
             Y : Obtained from the ccRepo (grant-hill.group.shef.ac.uk/ccrepo) Feb. 2017
                 K. A. Peterson, D. Figgen, M. Dolg, H. Stoll, J. Chem. Phys. 126, 124101 (2007)
        Ag, Au : Obtained from the Peterson Research Group Website (tyr0.chem.wsu.edu/~kipeters) Feb. 2017
                 K. A. Peterson, C. Puzzarini, Theor. Chem. Acc. 114, 283 (2005)

----- AuxJ basis set information -----
Your calculation utilizes the auxiliary basis: def2/J
   F. Weigend, Phys. Chem. Chem. Phys. 8, 1057 (2006).

================================================================================
                                        WARNINGS
                       Please study these warnings very carefully!
================================================================================

WARNING: The globally-selected AuxJ basis set is optimized for use with ECPs
         Make sure a suitable alternative is explicitly given all heavy elements (Z>36)

INFO   : the flag for use of the SHARK integral package has been found!

================================================================================
                                       INPUT FILE
================================================================================
NAME = final007.orca.inp
|  1> ! NoMOPrint PrintBasis #MINIPRINT SMALLPRINT LARGEPRINT
|  2> ! ALLPOP XYZFILE
|  3> #! BP86 3-21G   TightSCF
|  4> ! ENGRAD
|  5> ! B3LYP NormalPNO PModel #DecontractAux
|  6> #! VerySlowConv 
|  7>  %maxcore 5000
|  8>  %scf  maxiter   500  end 
|  9> 
| 10> %pal
| 11>     nprocs 32
| 12> end
| 13> 
| 14> %basis
| 15>     NewGTO O    # New basis for oxygen
| 16>         "aug-cc-pVTZ"
| 17>     end
| 18>     NewGTO C    # New basis for carbon
| 19>         "aug-cc-pVTZ"
| 20>     end
| 21>     NewGTO H    # New basis for hydrogen
| 22>         "cc-pVTZ"
| 23>     end
| 24> end
| 25> 
| 26> * xyz 0   1
| 27>   C  10.22  12.13  10.75  #1
| 28>   H  10.39  12.73  11.65  #2
| 29>   H  9.37  11.51  10.95  #3
| 30>   C  11.41  11.36  10.34  #4
| 31>   H  11.13  10.93  9.32  #5
| 32>   H  12.31  11.98  10.17  #6
| 33>   C  11.7  10.31  11.39  #7
| 34>   H  11.53  10.79  12.4  #8
| 35>   H  12.77  9.95  11.44  #9
| 36>   C  10.88  9.14  11.18  #10
| 37>   H  11.5  8.26  10.77  #11
| 38>   H  9.99  9.26  10.63  #12
| 39>   O  10.34  8.73  12.45  #13
| 40>   H  9.39  8.82  12.35  #14
| 41>   O  9.82  13.03  9.71  #15
| 42>   H  9  13.52  9.92  #16
| 43>   O  9.24  8.62  7.9  #17
| 44>   H  10.2  8.83  8.08  #18
| 45>   H  9.02  9.28  7.28  #19
| 46>   O  10.51  6.18  6.96  #20
| 47>   H  10.84  5.91  7.76  #21
| 48>   H  10.25  7.06  7.2  #22
| 49>   O  12.44  10.91  6.36  #23
| 50>   H  13.33  10.75  5.87  #24
| 51>   H  12.77  11.36  7.18  #25
| 52>   O  13.63  14.05  11.87  #26
| 53>   H  14.35  13.61  11.43  #27
| 54>   H  13.25  13.39  12.42  #28
| 55>   O  14.95  8.63  11.23  #29
| 56>   H  15.02  9.49  10.73  #30
| 57>   H  15.62  8.81  11.98  #31
| 58>   O  11.67  14.43  8.09  #32
| 59>   H  11.27  14.44  7.16  #33
| 60>   H  11  13.98  8.59  #34
| 61>   O  7.03  8.87  9.6  #35
| 62>   H  7.83  8.36  9.44  #36
| 63>   H  6.29  8.27  9.5  #37
| 64>   O  7.58  14.79  10.11  #38
| 65>   H  7.1  15.39  9.52  #39
| 66>   H  7.01  14.07  10.44  #40
| 67>   O  8.78  12.76  7.11  #41
| 68>   H  8.19  13.47  6.86  #42
| 69>   H  8.88  12.73  8.07  #43
| 70>   O  10.65  12.63  5.13  #44
| 71>   H  10.05  12.49  5.87  #45
| 72>   H  11.28  11.83  5.16  #46
| 73>   O  16.94  8.96  12.91  #47
| 74>   H  17.47  8.93  12.03  #48
| 75>   H  17.22  8.29  13.59  #49
| 76>   O  14.46  12  7.96  #50
| 77>   H  15  11.68  8.67  #51
| 78>   H  14.34  12.96  7.94  #52
| 79>   O  14.28  7.03  8.78  #53
| 80>   H  14.51  6.09  8.75  #54
| 81>   H  14.74  7.4  9.56  #55
| 82>   O  10.91  6.03  14.07  #56
| 83>   H  10.34  6.72  13.74  #57
| 84>   H  11.02  6.25  14.97  #58
| 85>   O  8.26  12.36  13.32  #59
| 86>   H  8.37  11.42  13.17  #60
| 87>   H  8.14  12.39  14.31  #61
| 88>   O  9.18  16.17  12.44  #62
| 89>   H  8.53  16.28  13.2  #63
| 90>   H  8.56  15.7  11.91  #64
| 91>   O  8.05  7.04  13.81  #65
| 92>   H  8.27  6.8  14.73  #66
| 93>   H  7.54  7.9  13.89  #67
| 94>   O  11.63  5.49  9.71  #68
| 95>   H  10.85  6.04  9.96  #69
| 96>   H  12.43  5.97  9.89  #70
| 97>   O  16.1  10.82  9.77  #71
| 98>   H  16.12  11.63  10.34  #72
| 99>   H  16.93  10.75  9.25  #73
|100>   O  16.18  13.1  11.43  #74
|101>   H  17.03  12.88  11.93  #75
|102>   H  16.49  13.78  10.76  #76
|103>   O  12.53  16.42  10.61  #77
|104>   H  11.9  16.45  9.88  #78
|105>   H  12.67  15.53  10.82  #79
|106>   O  11.41  17.3  8.29  #80
|107>   H  11.83  18.1  7.94  #81
|108>   H  11.35  16.67  7.56  #82
|109>   O  11.94  15.04  5.37  #83
|110>   H  11.77  14.13  5.2  #84
|111>   H  12.71  15.16  4.81  #85
|112>   O  6.93  6.83  5.91  #86
|113>   H  6.07  6.5  6.27  #87
|114>   H  7.38  7.46  6.45  #88
|115>   O  7.82  10.24  6.23  #89
|116>   H  7.66  10.22  5.29  #90
|117>   H  7.81  11.18  6.55  #91
|118>   O  7.83  9.58  12.37  #92
|119>   H  7.42  9.55  11.5  #93
|120>   H  7.09  9.52  12.96  #94
|121>   O  14.57  15.48  14.02  #95
|122>   H  14.32  15.09  13.18  #96
|123>   H  15.53  15.48  13.96  #97
|124>   O  6.24  12.58  11.47  #98
|125>   H  6.88  12.5  12.21  #99
|126>   H  6.64  12.06  10.72  #100
|127>   O  15.12  9.92  5.2  #101
|128>   H  15.83  10.42  4.73  #102
|129>   H  15.58  9.28  5.76  #103
|130>   O  13.69  6.95  13.31  #104
|131>   H  13.66  7.63  12.62  #105
|132>   H  12.76  6.73  13.45  #106
|133>   O  7.08  11.62  9.21  #107
|134>   H  7.06  10.6  9.18  #108
|135>   H  6.43  11.97  8.62  #109
|136>   O  11.4  9.67  14.7  #110
|137>   H  10.63  9.87  15.32  #111
|138>   H  11.06  9.04  14.04  #112
|139>   O  11.94  8.79  8.11  #113
|140>   H  12.55  8.08  8.35  #114
|141>   H  12.56  9.41  7.68  #115
|142>   O  12.34  12.36  13.96  #116
|143>   H  12.06  11.44  14.05  #117
|144>   H  11.53  12.81  14.17  #118
|145>   O  14.5  14.75  8.06  #119
|146>   H  15  14.77  8.87  #120
|147>   H  13.64  14.95  8.37  #121
|148>   O  11.88  8.42  4.89  #122
|149>   H  11.44  8.89  5.54  #123
|150>   H  11.37  7.61  4.9  #124
|151>   O  9.1  6.56  10.49  #125
|152>   H  8.61  7.23  10.98  #126
|153>   H  8.46  5.82  10.49  #127
|154>   Q  0.6645  9.47$  6.11$  16.81$
|155>   Q  0.6645  8$  5.48$  16.78$
|156>   Q  -1.3290  8.62$  6.06$  16.65$
|157>   Q  0.6645  1.26$  9.58$  9.85$
|158>   Q  0.6645  0.96$  8.27$  10.54$
|159>   Q  -1.3290  0.9$  9.1$  10.47$
|160>   Q  0.6645  7.89$  15.75$  2.7$
|161>   Q  0.6645  8.33$  14.2$  2.94$
|162>   Q  -1.3290  8.16$  15.04$  3.13$
|163>   Q  0.6645  12.89$  2.4$  15.48$
|164>   Q  0.6645  12.23$  2.59$  16.89$
|165>   Q  -1.3290  12.7$  2.15$  16.28$
|166>   Q  0.6645  12.91$  9.84$  0.95$
|167>   Q  0.6645  12.66$  10.04$  -0.53$
|168>   Q  -1.3290  13.1$  10.11$  0.19$
|169>   Q  0.6645  7.52$  1.49$  13.49$
|170>   Q  0.6645  6.87$  1.97$  14.72$
|171>   Q  -1.3290  7.08$  2.04$  13.9$
|172>   Q  0.6645  16.15$  2.3$  14.22$
|173>   Q  0.6645  14.85$  2.45$  13.43$
|174>   Q  -1.3290  15.67$  2.26$  13.54$
|175>   Q  0.6645  6.81$  5.42$  13.14$
|176>   Q  0.6645  6.1$  4.08$  13.74$
|177>   Q  -1.3290  6.17$  4.91$  13.46$
|178>   Q  0.6645  12.5$  1.01$  6.74$
|179>   Q  0.6645  13.23$  0.24$  7.76$
|180>   Q  -1.3290  12.59$  0.67$  7.5$
|181>   Q  0.6645  12.46$  16.79$  15.57$
|182>   Q  0.6645  13.5$  16.77$  14.47$
|183>   Q  -1.3290  12.97$  17.12$  15.01$
|184>   Q  0.6645  4.46$  9.68$  6.13$
|185>   Q  0.6645  5.78$  9.85$  6.92$
|186>   Q  -1.3290  4.91$  9.87$  6.81$
|187>   Q  0.6645  13.06$  20.34$  5.81$
|188>   Q  0.6645  13.62$  21.77$  5.15$
|189>   Q  -1.3290  13.53$  20.89$  5.29$
|190>   Q  0.6645  15.99$  14.8$  1.83$
|191>   Q  0.6645  15.02$  13.66$  2.14$
|192>   Q  -1.3290  15.54$  14.26$  2.37$
|193>   Q  0.6645  12.29$  1.53$  12.41$
|194>   Q  0.6645  12.65$  1.94$  10.96$
|195>   Q  -1.3290  12.83$  1.61$  11.74$
|196>   Q  0.6645  11.58$  2.61$  18.68$
|197>   Q  0.6645  10.75$  3.77$  19.02$
|198>   Q  -1.3290  11.27$  3.38$  18.54$
|199>   Q  0.6645  9.39$  21.35$  7.36$
|200>   Q  0.6645  10.7$  21.86$  7.95$
|201>   Q  -1.3290  9.86$  21.72$  7.94$
|202>   Q  0.6645  15.98$  8.73$  3.47$
|203>   Q  0.6645  16.1$  7.47$  2.46$
|204>   Q  -1.3290  15.73$  8.01$  3.03$
|205>   Q  0.6645  8.3$  6.28$  4.98$
|206>   Q  0.6645  9.46$  5.72$  4.06$
|207>   Q  -1.3290  8.78$  6.22$  4.25$
|208>   Q  0.6645  16.55$  11.64$  16.51$
|209>   Q  0.6645  15.44$  12.54$  16$
|210>   Q  -1.3290  16.22$  12.25$  16.03$
|211>   Q  0.6645  17.35$  19.98$  10.36$
|212>   Q  0.6645  17.82$  18.93$  9.32$
|213>   Q  -1.3290  17.9$  19.58$  9.86$
|214>   Q  0.6645  21.08$  11.06$  10.25$
|215>   Q  0.6645  20.44$  12.39$  10.03$
|216>   Q  -1.3290  20.45$  11.55$  10.1$
|217>   Q  0.6645  11.39$  18.39$  2.79$
|218>   Q  0.6645  11.41$  19.88$  3.31$
|219>   Q  -1.3290  11.71$  19.12$  3.13$
|220>   Q  0.6645  9.75$  18.06$  8.17$
|221>   Q  0.6645  8.76$  18.74$  9$
|222>   Q  -1.3290  9$  18.34$  8.31$
|223>   Q  0.6645  3.83$  10.35$  17.03$
|224>   Q  0.6645  2.85$  9.21$  17.36$
|225>   Q  -1.3290  3.06$  10.03$  17.17$
|226>   Q  0.6645  18$  3.5$  11.29$
|227>   Q  0.6645  17.36$  2.78$  12.49$
|228>   Q  -1.3290  17.97$  3.15$  12.04$
|229>   Q  0.6645  11.62$  20.61$  15.25$
|230>   Q  0.6645  10.19$  20.65$  14.66$
|231>   Q  -1.3290  10.87$  20.99$  15.03$
|232>   Q  0.6645  3.68$  7.29$  17.13$
|233>   Q  0.6645  3.47$  7.65$  18.53$
|234>   Q  -1.3290  3.21$  7.49$  17.75$
|235>   Q  0.6645  8.72$  20.39$  13.13$
|236>   Q  0.6645  9.51$  19.09$  13.38$
|237>   Q  -1.3290  8.88$  19.68$  13.52$
|238>   Q  0.6645  8.86$  16.38$  18.3$
|239>   Q  0.6645  8.07$  16.73$  17.02$
|240>   Q  -1.3290  8.77$  16.7$  17.51$
|241>   Q  0.6645  18.53$  6.52$  7.62$
|242>   Q  0.6645  17.56$  5.25$  7.56$
|243>   Q  -1.3290  17.85$  6.03$  7.78$
|244>   Q  0.6645  19.99$  8.81$  8.72$
|245>   Q  0.6645  20.27$  9.2$  7.13$
|246>   Q  -1.3290  20.34$  8.71$  7.89$
|247>   Q  0.6645  14.26$  7.54$  20.64$
|248>   Q  0.6645  13.68$  6.19$  19.79$
|249>   Q  -1.3290  13.67$  6.94$  20.33$
|250>   Q  0.6645  11.76$  5.55$  3.15$
|251>   Q  0.6645  11.81$  4.98$  4.57$
|252>   Q  -1.3290  11.43$  5.3$  3.89$
|253>   Q  0.6645  17.52$  3.69$  16.18$
|254>   Q  0.6645  17.4$  5.14$  15.91$
|255>   Q  -1.3290  17.72$  4.49$  16.29$
|256>   Q  0.6645  15.81$  17.98$  5.46$
|257>   Q  0.6645  16.6$  19.46$  5.53$
|258>   Q  -1.3290  16.35$  18.66$  5.23$
|259>   Q  0.6645  10.35$  4.11$  3.07$
|260>   Q  0.6645  10.17$  2.91$  2.2$
|261>   Q  -1.3290  9.89$  3.52$  2.67$
|262>   Q  0.6645  17.65$  15.68$  10.04$
|263>   Q  0.6645  18.05$  14.5$  9.11$
|264>   Q  -1.3290  17.56$  14.92$  9.63$
|265>   Q  0.6645  15.9$  6.25$  5.17$
|266>   Q  0.6645  16.78$  5.05$  5.49$
|267>   Q  -1.3290  16.26$  5.5$  5.04$
|268>   Q  0.6645  8.15$  8.63$  18.81$
|269>   Q  0.6645  7.7$  7.59$  17.73$
|270>   Q  -1.3290  7.69$  8.33$  18.17$
|271>   Q  0.6645  0.25$  17.02$  7.16$
|272>   Q  0.6645  1.48$  16.22$  7.57$
|273>   Q  -1.3290  0.99$  16.92$  7.5$
|274>   Q  0.6645  16.85$  9.85$  17.55$
|275>   Q  0.6645  18.35$  10.03$  17.64$
|276>   Q  -1.3290  17.58$  10.25$  17.43$
|277>   Q  0.6645  11.91$  5.34$  17.57$
|278>   Q  0.6645  12.15$  6.79$  17.21$
|279>   Q  -1.3290  11.75$  6.07$  17.17$
|280>   Q  0.6645  9.52$  8.82$  20.89$
|281>   Q  0.6645  8.38$  9.76$  20.87$
|282>   Q  -1.3290  8.97$  9.31$  20.51$
|283>   Q  0.6645  13.34$  20.13$  11.87$
|284>   Q  0.6645  14.13$  20.69$  13.01$
|285>   Q  -1.3290  14.03$  20.27$  12.31$
|286>   Q  0.6645  10.73$  14.93$  15.18$
|287>   Q  0.6645  10.01$  14.8$  13.93$
|288>   Q  -1.3290  10.42$  14.47$  14.58$
|289>   Q  0.6645  16.38$  2.23$  6.24$
|290>   Q  0.6645  15.89$  1.6$  4.89$
|291>   Q  -1.3290  16.07$  1.6$  5.73$
|292>   Q  0.6645  14.45$  6.75$  14.85$
|293>   Q  0.6645  14.16$  5.61$  15.78$
|294>   Q  -1.3290  14.53$  6.31$  15.58$
|295>   Q  0.6645  15.64$  0.79$  11.06$
|296>   Q  0.6645  15.44$  -0.59$  11.33$
|297>   Q  -1.3290  15.89$  0.03$  11.04$
|298>   Q  0.6645  19.78$  10.6$  14.53$
|299>   Q  0.6645  20.83$  11.02$  15.53$
|300>   Q  -1.3290  20.47$  10.48$  14.99$
|301>   Q  0.6645  7.1$  2.22$  7.43$
|302>   Q  0.6645  6.86$  2.14$  5.84$
|303>   Q  -1.3290  6.7$  2.35$  6.67$
|304>   Q  0.6645  8.85$  4.35$  20.06$
|305>   Q  0.6645  9.85$  5.4$  20.49$
|306>   Q  -1.3290  9.59$  4.63$  20.33$
|307>   Q  0.6645  0.8$  11.97$  15.09$
|308>   Q  0.6645  1.46$  11.27$  13.87$
|309>   Q  -1.3290  1.28$  11.94$  14.37$
|310>   Q  0.6645  16.99$  7.95$  6.84$
|311>   Q  0.6645  17.83$  9.24$  6.76$
|312>   Q  -1.3290  17.48$  8.54$  6.48$
|313>   Q  0.6645  19.11$  4.48$  14.92$
|314>   Q  0.6645  18.84$  4.01$  13.48$
|315>   Q  -1.3290  19.32$  4.23$  14.13$
|316>   Q  0.6645  16.58$  7.13$  15.51$
|317>   Q  0.6645  18.22$  7.4$  15.53$
|318>   Q  -1.3290  17.44$  7.1$  15.26$
|319>   Q  0.6645  4.25$  18.97$  3.54$
|320>   Q  0.6645  3.8$  17.91$  4.53$
|321>   Q  -1.3290  4.21$  18.19$  3.85$
|322>   Q  0.6645  16.04$  3.66$  8.27$
|323>   Q  0.6645  17.51$  3.08$  8.16$
|324>   Q  -1.3290  16.73$  3.33$  7.88$
|325>   Q  0.6645  12.74$  19.09$  9.94$
|326>   Q  0.6645  11.89$  18.58$  11.1$
|327>   Q  -1.3290  12.13$  19.13$  10.52$
|328>   Q  0.6645  10.53$  17.22$  12.55$
|329>   Q  0.6645  11.73$  17.4$  13.6$
|330>   Q  -1.3290  11.08$  17.66$  13.11$
|331>   Q  0.6645  5.07$  5.87$  10.08$
|332>   Q  0.6645  6.25$  4.97$  10.16$
|333>   Q  -1.3290  5.78$  5.53$  9.77$
|334>   Q  0.6645  9.59$  4.89$  13.3$
|335>   Q  0.6645  8.4$  3.83$  13.68$
|336>   Q  -1.3290  9.07$  4.14$  13.26$
|337>   Q  0.6645  12.5$  12.27$  1.61$
|338>   Q  0.6645  13.77$  11.97$  0.92$
|339>   Q  -1.3290  13.27$  12.44$  1.39$
|340>   Q  0.6645  7.5$  17.02$  7.98$
|341>   Q  0.6645  5.87$  17.02$  7.77$
|342>   Q  -1.3290  6.66$  16.71$  7.91$
|343>   Q  0.6645  9.45$  2.79$  4.48$
|344>   Q  0.6645  9.02$  2.45$  5.97$
|345>   Q  -1.3290  9.41$  2.32$  5.2$
|346>   Q  0.6645  7.48$  20.27$  16.42$
|347>   Q  0.6645  7.4$  19.8$  15.01$
|348>   Q  -1.3290  7.08$  19.92$  15.76$
|349>   Q  0.6645  6.28$  1.97$  11.58$
|350>   Q  0.6645  5.66$  0.71$  11.87$
|351>   Q  -1.3290  5.95$  1.27$  11.37$
|352>   Q  0.6645  13.87$  4.08$  19.4$
|353>   Q  0.6645  14.94$  5.09$  19.02$
|354>   Q  -1.3290  14.15$  4.78$  19.02$
|355>   Q  0.6645  7.09$  19.49$  10.63$
|356>   Q  0.6645  6.12$  18.96$  9.51$
|357>   Q  -1.3290  6.41$  19.11$  10.28$
|358>   Q  0.6645  12.7$  9.14$  3.46$
|359>   Q  0.6645  14.03$  8.56$  2.72$
|360>   Q  -1.3290  13.26$  8.95$  2.81$
|361>   Q  0.6645  7.78$  12.34$  3.62$
|362>   Q  0.6645  9.24$  12.64$  3.9$
|363>   Q  -1.3290  8.55$  12.56$  3.42$
|364>   Q  0.6645  19.26$  13.08$  14.36$
|365>   Q  0.6645  18.14$  12.59$  15.3$
|366>   Q  -1.3290  18.89$  12.96$  15.11$
|367>   Q  0.6645  12.84$  7.43$  1.82$
|368>   Q  0.6645  12.82$  6.46$  0.51$
|369>   Q  -1.3290  12.7$  6.71$  1.35$
|370>   Q  0.6645  12.54$  12.29$  19.02$
|371>   Q  0.6645  13.19$  12.79$  17.69$
|372>   Q  -1.3290  13.06$  12.78$  18.54$
|373>   Q  0.6645  3.05$  19.53$  12.84$
|374>   Q  0.6645  2.56$  20.34$  11.67$
|375>   Q  -1.3290  2.53$  20.03$  12.44$
|376>   Q  0.6645  4.27$  7.44$  12.09$
|377>   Q  0.6645  4.58$  6.02$  12.4$
|378>   Q  -1.3290  4.43$  6.65$  11.88$
|379>   Q  0.6645  4.4$  13.45$  14.8$
|380>   Q  0.6645  2.97$  12.86$  14.96$
|381>   Q  -1.3290  3.74$  13.11$  15.24$
|382>   Q  0.6645  8.91$  0.03$  11.71$
|383>   Q  0.6645  9.71$  0.68$  12.84$
|384>   Q  -1.3290  9.02$  0.38$  12.47$
|385>   Q  0.6645  12.41$  9.7$  16.52$
|386>   Q  0.6645  13.34$  9.16$  17.67$
|387>   Q  -1.3290  12.61$  9.41$  17.3$
|388>   Q  0.6645  3.14$  15.24$  15.65$
|389>   Q  0.6645  2.33$  16.28$  16.45$
|390>   Q  -1.3290  2.91$  16.01$  15.92$
|391>   Q  0.6645  5.29$  7.44$  20.4$
|392>   Q  0.6645  5.92$  8$  19.1$
|393>   Q  -1.3290  5.29$  7.79$  19.63$
|394>   Q  0.6645  5.71$  13.28$  2.6$
|395>   Q  0.6645  5.02$  12.19$  3.53$
|396>   Q  -1.3290  5.61$  12.79$  3.31$
|397>   Q  0.6645  9.67$  16.29$  4.26$
|398>   Q  0.6645  10.71$  16.86$  5.22$
|399>   Q  -1.3290  10.09$  16.91$  4.67$
|400>   Q  0.6645  3.61$  14.46$  7.86$
|401>   Q  0.6645  3.23$  15.41$  9.02$
|402>   Q  -1.3290  3.11$  15.02$  8.27$
|403>   Q  0.6645  4.9$  6.44$  3.89$
|404>   Q  0.6645  6.32$  7.08$  4.02$
|405>   Q  -1.3290  5.58$  6.87$  3.64$
|406>   Q  0.6645  5.08$  13.88$  12.68$
|407>   Q  0.6645  5.43$  15.08$  13.5$
|408>   Q  -1.3290  5.06$  14.36$  13.36$
|409>   Q  0.6645  20.02$  8.49$  16.08$
|410>   Q  0.6645  20.77$  7.34$  16.59$
|411>   Q  -1.3290  20.1$  7.8$  16.5$
|412>   Q  0.6645  5.05$  6.39$  15.33$
|413>   Q  0.6645  5.49$  7.76$  15.74$
|414>   Q  -1.3290  5.15$  7$  15.86$
|415>   Q  0.6645  16.65$  10.62$  2.35$
|416>   Q  0.6645  17.86$  10.91$  3.15$
|417>   Q  -1.3290  17.1$  10.6$  3.05$
|418>   Q  0.6645  5.54$  13.68$  6.83$
|419>   Q  0.6645  4.56$  12.54$  6.79$
|420>   Q  -1.3290  5.02$  13.13$  7.16$
|421>   Q  0.6645  7.7$  14.33$  18.92$
|422>   Q  0.6645  6.46$  14.82$  18.22$
|423>   Q  -1.3290  7.04$  14.22$  18.42$
|424>   Q  0.6645  4.95$  14.93$  4.61$
|425>   Q  0.6645  3.96$  15.74$  4.07$
|426>   Q  -1.3290  4.21$  15.28$  4.66$
|427>   Q  0.6645  14.51$  15.65$  3.18$
|428>   Q  0.6645  14.15$  17.18$  3.35$
|429>   Q  -1.3290  14.06$  16.35$  3.43$
|430>   Q  0.6645  9.75$  9.32$  2.39$
|431>   Q  0.6645  9.23$  7.91$  2.91$
|432>   Q  -1.3290  9.35$  8.56$  2.33$
|433>   Q  0.6645  1.99$  10.47$  5.82$
|434>   Q  0.6645  1.05$  9.8$  4.81$
|435>   Q  -1.3290  1.76$  9.86$  5.32$
|436>   Q  0.6645  16.68$  14.15$  16.33$
|437>   Q  0.6645  16.56$  14.97$  17.6$
|438>   Q  -1.3290  16.79$  14.84$  16.8$
|439>   Q  0.6645  13.9$  7.93$  5.47$
|440>   Q  0.6645  14.49$  7.46$  6.92$
|441>   Q  -1.3290  14.28$  7.42$  6.06$
|442>   Q  0.6645  19.81$  8.83$  11.29$
|443>   Q  0.6645  18.78$  7.83$  10.72$
|444>   Q  -1.3290  19.24$  8.54$  10.74$
|445>   Q  0.6645  3.45$  13.54$  4.97$
|446>   Q  0.6645  2.53$  12.35$  5.64$
|447>   Q  -1.3290  3.01$  12.77$  5.03$
|448>   Q  0.6645  15.89$  11.96$  6.35$
|449>   Q  0.6645  16.83$  12.8$  5.41$
|450>   Q  -1.3290  16.57$  12.37$  6.09$
|451>   Q  0.6645  6.66$  17$  15.05$
|452>   Q  0.6645  6.35$  17.03$  13.55$
|453>   Q  -1.3290  6.75$  16.74$  14.27$
|454>   Q  0.6645  8.31$  3.77$  11.45$
|455>   Q  0.6645  7.74$  3.54$  10.07$
|456>   Q  -1.3290  7.77$  3.9$  10.81$
|457>   Q  0.6645  3.81$  9.79$  8.8$
|458>   Q  0.6645  4.3$  10.73$  9.91$
|459>   Q  -1.3290  3.81$  10.13$  9.56$
|460>   Q  0.6645  3.67$  9.96$  11.97$
|461>   Q  0.6645  2.87$  9.68$  13.2$
|462>   Q  -1.3290  3.56$  9.65$  12.74$
|463>   Q  0.6645  8.67$  18.46$  18.18$
|464>   Q  0.6645  7.56$  19.14$  19.01$
|465>   Q  -1.3290  8.27$  19.12$  18.52$
|466>   Q  0.6645  18.85$  5.87$  11.3$
|467>   Q  0.6645  18.25$  6.06$  9.9$
|468>   Q  -1.3290  18.25$  6.08$  10.74$
|469>   Q  0.6645  4.5$  3.18$  16.83$
|470>   Q  0.6645  5.02$  4.58$  16.47$
|471>   Q  -1.3290  4.41$  3.98$  16.64$
|472>   Q  0.6645  17.19$  16.45$  7.56$
|473>   Q  0.6645  17.02$  17.69$  6.85$
|474>   Q  -1.3290  17.43$  17.16$  7.36$
|475>   Q  0.6645  7.04$  15.38$  6.57$
|476>   Q  0.6645  7.46$  14.87$  5.09$
|477>   Q  -1.3290  7.08$  14.83$  5.9$
|478>   Q  0.6645  13.7$  16.05$  19.13$
|479>   Q  0.6645  12.91$  14.77$  19.58$
|480>   Q  -1.3290  12.98$  15.57$  19.31$
|481>   Q  0.6645  16.48$  5.77$  11.41$
|482>   Q  0.6645  15.06$  6.08$  12.22$
|483>   Q  -1.3290  15.66$  5.67$  11.74$
|484>   Q  0.6645  15.62$  14.94$  19.98$
|485>   Q  0.6645  14.84$  14.16$  18.89$
|486>   Q  -1.3290  15.53$  14.5$  19.24$
|487>   Q  0.6645  5.19$  9.36$  14.21$
|488>   Q  0.6645  6.25$  9.86$  15.31$
|489>   Q  -1.3290  5.91$  9.3$  14.7$
|490>   Q  0.6645  15.14$  7.75$  17.55$
|491>   Q  0.6645  15.49$  8.33$  19.02$
|492>   Q  -1.3290  15.32$  8.36$  18.14$
|493>   Q  0.6645  0.81$  9.31$  12.34$
|494>   Q  0.6645  0.12$  9.8$  13.75$
|495>   Q  -1.3290  0.74$  9.54$  13.2$
|496>   Q  0.6645  12.85$  3.67$  13.44$
|497>   Q  0.6645  14.19$  4.35$  13.49$
|498>   Q  -1.3290  13.58$  3.88$  13.81$
|499>   Q  0.6645  8.22$  15.87$  20.66$
|500>   Q  0.6645  9.46$  15.01$  20.45$
|501>   Q  -1.3290  8.77$  15.45$  20.19$
|502>   Q  0.6645  4.7$  17.73$  12.8$
|503>   Q  0.6645  5.7$  17.91$  11.79$
|504>   Q  -1.3290  5.24$  17.44$  12.28$
|505>   Q  0.6645  8.25$  13.41$  16.83$
|506>   Q  0.6645  9.3$  13.42$  15.68$
|507>   Q  -1.3290  8.66$  13.11$  16.16$
|508>   Q  0.6645  15.17$  4.5$  10.39$
|509>   Q  0.6645  14.07$  3.64$  9.51$
|510>   Q  -1.3290  14.73$  4.2$  9.68$
|511>   Q  0.6645  8.48$  1.2$  8.86$
|512>   Q  0.6645  7.02$  1.3$  9.37$
|513>   Q  -1.3290  7.75$  1.61$  9.07$
|514>   Q  0.6645  8.94$  9.34$  16.64$
|515>   Q  0.6645  8.87$  10.79$  16.3$
|516>   Q  -1.3290  9.25$  10.05$  16.35$
|517>   Q  0.6645  5.32$  19.46$  7.22$
|518>   Q  0.6645  3.9$  18.87$  7.34$
|519>   Q  -1.3290  4.75$  18.87$  7.42$
|520>   Q  0.6645  12.19$  18.59$  5.03$
|521>   Q  0.6645  13.07$  17.75$  6.02$
|522>   Q  -1.3290  12.48$  18.31$  5.8$
|523>   Q  0.6645  13.49$  5.47$  5.77$
|524>   Q  0.6645  14.48$  4.48$  4.99$
|525>   Q  -1.3290  13.75$  4.72$  5.38$
|526>   Q  0.6645  4.23$  6.49$  7.21$
|527>   Q  0.6645  5.31$  5.49$  7.76$
|528>   Q  -1.3290  4.73$  5.81$  7.21$
|529>   Q  0.6645  11.73$  2.1$  5.03$
|530>   Q  0.6645  13.06$  2.78$  5.28$
|531>   Q  -1.3290  12.55$  2.1$  5.15$
|532>   Q  0.6645  19.04$  11.11$  8.28$
|533>   Q  0.6645  17.97$  11.46$  7.31$
|534>   Q  -1.3290  18.38$  10.94$  7.78$
|535>   Q  0.6645  18.4$  13.84$  6.52$
|536>   Q  0.6645  19.27$  15.04$  6.86$
|537>   Q  -1.3290  19.01$  14.24$  6.96$
|538>   Q  0.6645  14.19$  17.17$  10.92$
|539>   Q  0.6645  14.82$  18.33$  11.73$
|540>   Q  -1.3290  14.81$  17.68$  11.14$
|541>   Q  0.6645  7.95$  0.89$  16.91$
|542>   Q  0.6645  6.61$  1.3$  17.34$
|543>   Q  -1.3290  7.23$  1.28$  16.8$
|544>   Q  0.6645  5.31$  16.16$  16.59$
|545>   Q  0.6645  5.59$  16.92$  17.87$
|546>   Q  -1.3290  5.77$  16.37$  17.25$
|547>   Q  0.6645  10.05$  20.37$  10.71$
|548>   Q  0.6645  9.26$  21.15$  9.68$
|549>   Q  -1.3290  9.33$  20.62$  10.36$
|550>   Q  0.6645  1.9$  12.7$  10.17$
|551>   Q  0.6645  2$  13.9$  9.11$
|552>   Q  -1.3290  1.67$  13.16$  9.5$
|553>   Q  0.6645  3.96$  3.92$  6.92$
|554>   Q  0.6645  4.94$  2.87$  6.74$
|555>   Q  -1.3290  4.15$  3.14$  6.85$
|556>   Q  0.6645  14.77$  18.55$  9.56$
|557>   Q  0.6645  14.5$  19.63$  8.51$
|558>   Q  -1.3290  14.35$  18.9$  8.88$
|559>   Q  0.6645  20.22$  16.23$  9.84$
|560>   Q  0.6645  19.25$  16.8$  10.89$
|561>   Q  -1.3290  19.94$  16.83$  10.35$
|562>   Q  0.6645  11.78$  15.37$  17.36$
|563>   Q  0.6645  10.46$  16.13$  16.93$
|564>   Q  -1.3290  11.29$  15.87$  16.86$
|565>   Q  0.6645  6.87$  4.07$  18.06$
|566>   Q  0.6645  7.1$  3.34$  16.82$
|567>   Q  -1.3290  6.96$  4.01$  17.24$
|568>   Q  0.6645  7.97$  17.81$  3.79$
|569>   Q  0.6645  6.53$  17.8$  3.88$
|570>   Q  -1.3290  7.22$  17.78$  3.45$
|571>   Q  0.6645  12.16$  16.72$  1.53$
|572>   Q  0.6645  11.99$  16$  2.89$
|573>   Q  -1.3290  11.81$  16.2$  2.08$
|574>   Q  0.6645  18.44$  8.44$  4.63$
|575>   Q  0.6645  18.33$  8.68$  3.13$
|576>   Q  -1.3290  18.69$  8.4$  3.81$
|577>   Q  0.6645  13.26$  19.04$  15.12$
|578>   Q  0.6645  14.15$  20.34$  15.2$
|579>   Q  -1.3290  13.46$  19.81$  15.35$
|580>   Q  0.6645  5.12$  11.94$  16.23$
|581>   Q  0.6645  6.2$  11.89$  17.28$
|582>   Q  -1.3290  5.62$  11.53$  16.77$
|583>   Q  0.6645  14.32$  14.24$  15.76$
|584>   Q  0.6645  13.28$  13.19$  15.36$
|585>   Q  -1.3290  13.9$  13.57$  15.85$
|586>   Q  0.6645  18.72$  16.13$  14.06$
|587>   Q  0.6645  17.73$  15.62$  15.19$
|588>   Q  -1.3290  17.96$  15.96$  14.43$
|589>   Q  0.6645  8.96$  19.46$  6.5$
|590>   Q  0.6645  9.54$  20.34$  5.21$
|591>   Q  -1.3290  8.96$  20.08$  5.84$
|592>   Q  0.6645  3$  13.67$  11.9$
|593>   Q  0.6645  2.34$  12.71$  12.73$
|594>   Q  -1.3290  2.62$  12.98$  12.03$
|595>   Q  0.6645  10.69$  6.96$  21.99$
|596>   Q  0.6645  11.38$  7.21$  20.57$
|597>   Q  -1.3290  10.73$  7.08$  21.12$
|598>   Q  0.6645  10.28$  2.64$  13.84$
|599>   Q  0.6645  10.99$  1.42$  14.53$
|600>   Q  -1.3290  10.9$  2.05$  13.97$
|601>   Q  0.6645  1.36$  6.82$  15.56$
|602>   Q  0.6645  0.76$  7.91$  14.5$
|603>   Q  -1.3290  1.2$  7.21$  14.83$
|604>   Q  0.6645  6.02$  9.91$  3.42$
|605>   Q  0.6645  7.51$  9.6$  2.95$
|606>   Q  -1.3290  6.88$  9.84$  3.49$
|607>   Q  0.6645  21.7$  13.92$  9.99$
|608>   Q  0.6645  20.6$  14.23$  11.18$
|609>   Q  -1.3290  20.9$  14.14$  10.36$
|610>   Q  0.6645  17.21$  17.22$  11.64$
|611>   Q  0.6645  17.71$  16.13$  12.45$
|612>   Q  -1.3290  17.71$  16.59$  11.77$
|613>   Q  0.6645  14.93$  16.23$  7.19$
|614>   Q  0.6645  14.57$  17.72$  7.37$
|615>   Q  -1.3290  14.85$  17.03$  6.92$
|616>   Q  0.6645  2.48$  6.4$  11.07$
|617>   Q  0.6645  1.34$  5.67$  10.32$
|618>   Q  -1.3290  1.67$  6.3$  10.78$
|619>   Q  0.6645  6.05$  22.14$  6.4$
|620>   Q  0.6645  6.94$  21$  6.12$
|621>   Q  -1.3290  6.32$  21.36$  6.52$
|622>   Q  0.6645  3.36$  17.85$  14.65$
|623>   Q  0.6645  4.12$  19.2$  14.91$
|624>   Q  -1.3290  3.89$  18.53$  14.48$
|625>   Q  0.6645  3.3$  4.3$  15.12$
|626>   Q  0.6645  2.58$  5.52$  14.44$
|627>   Q  -1.3290  2.74$  4.69$  14.62$
|628>   Q  0.6645  2.44$  16.41$  11.22$
|629>   Q  0.6645  3.96$  16.25$  11.29$
|630>   Q  -1.3290  3.18$  16.01$  11.09$
|631>   Q  0.6645  11.67$  10.1$  18.92$
|632>   Q  0.6645  10.47$  10.59$  19.76$
|633>   Q  -1.3290  11.27$  10.55$  19.53$
|634>   Q  0.6645  17.92$  10.85$  13.04$
|635>   Q  0.6645  19.1$  11.05$  12.02$
|636>   Q  -1.3290  18.63$  11.23$  12.72$
|637>   Q  0.6645  18.68$  14.87$  4.04$
|638>   Q  0.6645  17.26$  14.45$  3.51$
|639>   Q  -1.3290  17.92$  14.48$  4.05$
|640>   Q  0.6645  15.16$  17.71$  16.03$
|641>   Q  0.6645  16.17$  16.91$  16.83$
|642>   Q  -1.3290  15.88$  17.53$  16.33$
|643>   Q  0.6645  12.41$  2.08$  8.86$
|644>   Q  0.6645  11.79$  3.45$  9.54$
|645>   Q  -1.3290  12.36$  2.78$  9.41$
|646>   Q  0.6645  0.74$  12.2$  6.66$
|647>   Q  0.6645  1.63$  12.15$  7.86$
|648>   Q  -1.3290  1.41$  11.95$  7.08$
|649>   Q  0.6645  9.87$  11.07$  0.69$
|650>   Q  0.6645  9.88$  12.04$  1.92$
|651>   Q  -1.3290  10.18$  11.46$  1.41$
|652> *
|653> 
|654>                          ****END OF INPUT****
================================================================================

                     *******************************
                     * Energy+Gradient Calculation *
                     *******************************

---------------------------------
CARTESIAN COORDINATES (ANGSTROEM)
---------------------------------
  C     10.220000   12.130000   10.750000
  H     10.390000   12.730000   11.650000
  H      9.370000   11.510000   10.950000
  C     11.410000   11.360000   10.340000
  H     11.130000   10.930000    9.320000
  H     12.310000   11.980000   10.170000
  C     11.700000   10.310000   11.390000
  H     11.530000   10.790000   12.400000
  H     12.770000    9.950000   11.440000
  C     10.880000    9.140000   11.180000
  H     11.500000    8.260000   10.770000
  H      9.990000    9.260000   10.630000
  O     10.340000    8.730000   12.450000
  H      9.390000    8.820000   12.350000
  O      9.820000   13.030000    9.710000
  H      9.000000   13.520000    9.920000
  O      9.240000    8.620000    7.900000
  H     10.200000    8.830000    8.080000
  H      9.020000    9.280000    7.280000
  O     10.510000    6.180000    6.960000
  H     10.840000    5.910000    7.760000
  H     10.250000    7.060000    7.200000
  O     12.440000   10.910000    6.360000
  H     13.330000   10.750000    5.870000
  H     12.770000   11.360000    7.180000
  O     13.630000   14.050000   11.870000
  H     14.350000   13.610000   11.430000
  H     13.250000   13.390000   12.420000
  O     14.950000    8.630000   11.230000
  H     15.020000    9.490000   10.730000
  H     15.620000    8.810000   11.980000
  O     11.670000   14.430000    8.090000
  H     11.270000   14.440000    7.160000
  H     11.000000   13.980000    8.590000
  O      7.030000    8.870000    9.600000
  H      7.830000    8.360000    9.440000
  H      6.290000    8.270000    9.500000
  O      7.580000   14.790000   10.110000
  H      7.100000   15.390000    9.520000
  H      7.010000   14.070000   10.440000
  O      8.780000   12.760000    7.110000
  H      8.190000   13.470000    6.860000
  H      8.880000   12.730000    8.070000
  O     10.650000   12.630000    5.130000
  H     10.050000   12.490000    5.870000
  H     11.280000   11.830000    5.160000
  O     16.940000    8.960000   12.910000
  H     17.470000    8.930000   12.030000
  H     17.220000    8.290000   13.590000
  O     14.460000   12.000000    7.960000
  H     15.000000   11.680000    8.670000
  H     14.340000   12.960000    7.940000
  O     14.280000    7.030000    8.780000
  H     14.510000    6.090000    8.750000
  H     14.740000    7.400000    9.560000
  O     10.910000    6.030000   14.070000
  H     10.340000    6.720000   13.740000
  H     11.020000    6.250000   14.970000
  O      8.260000   12.360000   13.320000
  H      8.370000   11.420000   13.170000
  H      8.140000   12.390000   14.310000
  O      9.180000   16.170000   12.440000
  H      8.530000   16.280000   13.200000
  H      8.560000   15.700000   11.910000
  O      8.050000    7.040000   13.810000
  H      8.270000    6.800000   14.730000
  H      7.540000    7.900000   13.890000
  O     11.630000    5.490000    9.710000
  H     10.850000    6.040000    9.960000
  H     12.430000    5.970000    9.890000
  O     16.100000   10.820000    9.770000
  H     16.120000   11.630000   10.340000
  H     16.930000   10.750000    9.250000
  O     16.180000   13.100000   11.430000
  H     17.030000   12.880000   11.930000
  H     16.490000   13.780000   10.760000
  O     12.530000   16.420000   10.610000
  H     11.900000   16.450000    9.880000
  H     12.670000   15.530000   10.820000
  O     11.410000   17.300000    8.290000
  H     11.830000   18.100000    7.940000
  H     11.350000   16.670000    7.560000
  O     11.940000   15.040000    5.370000
  H     11.770000   14.130000    5.200000
  H     12.710000   15.160000    4.810000
  O      6.930000    6.830000    5.910000
  H      6.070000    6.500000    6.270000
  H      7.380000    7.460000    6.450000
  O      7.820000   10.240000    6.230000
  H      7.660000   10.220000    5.290000
  H      7.810000   11.180000    6.550000
  O      7.830000    9.580000   12.370000
  H      7.420000    9.550000   11.500000
  H      7.090000    9.520000   12.960000
  O     14.570000   15.480000   14.020000
  H     14.320000   15.090000   13.180000
  H     15.530000   15.480000   13.960000
  O      6.240000   12.580000   11.470000
  H      6.880000   12.500000   12.210000
  H      6.640000   12.060000   10.720000
  O     15.120000    9.920000    5.200000
  H     15.830000   10.420000    4.730000
  H     15.580000    9.280000    5.760000
  O     13.690000    6.950000   13.310000
  H     13.660000    7.630000   12.620000
  H     12.760000    6.730000   13.450000
  O      7.080000   11.620000    9.210000
  H      7.060000   10.600000    9.180000
  H      6.430000   11.970000    8.620000
  O     11.400000    9.670000   14.700000
  H     10.630000    9.870000   15.320000
  H     11.060000    9.040000   14.040000
  O     11.940000    8.790000    8.110000
  H     12.550000    8.080000    8.350000
  H     12.560000    9.410000    7.680000
  O     12.340000   12.360000   13.960000
  H     12.060000   11.440000   14.050000
  H     11.530000   12.810000   14.170000
  O     14.500000   14.750000    8.060000
  H     15.000000   14.770000    8.870000
  H     13.640000   14.950000    8.370000
  O     11.880000    8.420000    4.890000
  H     11.440000    8.890000    5.540000
  H     11.370000    7.610000    4.900000
  O      9.100000    6.560000   10.490000
  H      8.610000    7.230000   10.980000
  H      8.460000    5.820000   10.490000
  Q      9.470000    6.110000   16.810000
  Q      8.000000    5.480000   16.780000
  Q      8.620000    6.060000   16.650000
  Q      1.260000    9.580000    9.850000
  Q      0.960000    8.270000   10.540000
  Q      0.900000    9.100000   10.470000
  Q      7.890000   15.750000    2.700000
  Q      8.330000   14.200000    2.940000
  Q      8.160000   15.040000    3.130000
  Q     12.890000    2.400000   15.480000
  Q     12.230000    2.590000   16.890000
  Q     12.700000    2.150000   16.280000
  Q     12.910000    9.840000    0.950000
  Q     12.660000   10.040000   -0.530000
  Q     13.100000   10.110000    0.190000
  Q      7.520000    1.490000   13.490000
  Q      6.870000    1.970000   14.720000
  Q      7.080000    2.040000   13.900000
  Q     16.150000    2.300000   14.220000
  Q     14.850000    2.450000   13.430000
  Q     15.670000    2.260000   13.540000
  Q      6.810000    5.420000   13.140000
  Q      6.100000    4.080000   13.740000
  Q      6.170000    4.910000   13.460000
  Q     12.500000    1.010000    6.740000
  Q     13.230000    0.240000    7.760000
  Q     12.590000    0.670000    7.500000
  Q     12.460000   16.790000   15.570000
  Q     13.500000   16.770000   14.470000
  Q     12.970000   17.120000   15.010000
  Q      4.460000    9.680000    6.130000
  Q      5.780000    9.850000    6.920000
  Q      4.910000    9.870000    6.810000
  Q     13.060000   20.340000    5.810000
  Q     13.620000   21.770000    5.150000
  Q     13.530000   20.890000    5.290000
  Q     15.990000   14.800000    1.830000
  Q     15.020000   13.660000    2.140000
  Q     15.540000   14.260000    2.370000
  Q     12.290000    1.530000   12.410000
  Q     12.650000    1.940000   10.960000
  Q     12.830000    1.610000   11.740000
  Q     11.580000    2.610000   18.680000
  Q     10.750000    3.770000   19.020000
  Q     11.270000    3.380000   18.540000
  Q      9.390000   21.350000    7.360000
  Q     10.700000   21.860000    7.950000
  Q      9.860000   21.720000    7.940000
  Q     15.980000    8.730000    3.470000
  Q     16.100000    7.470000    2.460000
  Q     15.730000    8.010000    3.030000
  Q      8.300000    6.280000    4.980000
  Q      9.460000    5.720000    4.060000
  Q      8.780000    6.220000    4.250000
  Q     16.550000   11.640000   16.510000
  Q     15.440000   12.540000   16.000000
  Q     16.220000   12.250000   16.030000
  Q     17.350000   19.980000   10.360000
  Q     17.820000   18.930000    9.320000
  Q     17.900000   19.580000    9.860000
  Q     21.080000   11.060000   10.250000
  Q     20.440000   12.390000   10.030000
  Q     20.450000   11.550000   10.100000
  Q     11.390000   18.390000    2.790000
  Q     11.410000   19.880000    3.310000
  Q     11.710000   19.120000    3.130000
  Q      9.750000   18.060000    8.170000
  Q      8.760000   18.740000    9.000000
  Q      9.000000   18.340000    8.310000
  Q      3.830000   10.350000   17.030000
  Q      2.850000    9.210000   17.360000
  Q      3.060000   10.030000   17.170000
  Q     18.000000    3.500000   11.290000
  Q     17.360000    2.780000   12.490000
  Q     17.970000    3.150000   12.040000
  Q     11.620000   20.610000   15.250000
  Q     10.190000   20.650000   14.660000
  Q     10.870000   20.990000   15.030000
  Q      3.680000    7.290000   17.130000
  Q      3.470000    7.650000   18.530000
  Q      3.210000    7.490000   17.750000
  Q      8.720000   20.390000   13.130000
  Q      9.510000   19.090000   13.380000
  Q      8.880000   19.680000   13.520000
  Q      8.860000   16.380000   18.300000
  Q      8.070000   16.730000   17.020000
  Q      8.770000   16.700000   17.510000
  Q     18.530000    6.520000    7.620000
  Q     17.560000    5.250000    7.560000
  Q     17.850000    6.030000    7.780000
  Q     19.990000    8.810000    8.720000
  Q     20.270000    9.200000    7.130000
  Q     20.340000    8.710000    7.890000
  Q     14.260000    7.540000   20.640000
  Q     13.680000    6.190000   19.790000
  Q     13.670000    6.940000   20.330000
  Q     11.760000    5.550000    3.150000
  Q     11.810000    4.980000    4.570000
  Q     11.430000    5.300000    3.890000
  Q     17.520000    3.690000   16.180000
  Q     17.400000    5.140000   15.910000
  Q     17.720000    4.490000   16.290000
  Q     15.810000   17.980000    5.460000
  Q     16.600000   19.460000    5.530000
  Q     16.350000   18.660000    5.230000
  Q     10.350000    4.110000    3.070000
  Q     10.170000    2.910000    2.200000
  Q      9.890000    3.520000    2.670000
  Q     17.650000   15.680000   10.040000
  Q     18.050000   14.500000    9.110000
  Q     17.560000   14.920000    9.630000
  Q     15.900000    6.250000    5.170000
  Q     16.780000    5.050000    5.490000
  Q     16.260000    5.500000    5.040000
  Q      8.150000    8.630000   18.810000
  Q      7.700000    7.590000   17.730000
  Q      7.690000    8.330000   18.170000
  Q      0.250000   17.020000    7.160000
  Q      1.480000   16.220000    7.570000
  Q      0.990000   16.920000    7.500000
  Q     16.850000    9.850000   17.550000
  Q     18.350000   10.030000   17.640000
  Q     17.580000   10.250000   17.430000
  Q     11.910000    5.340000   17.570000
  Q     12.150000    6.790000   17.210000
  Q     11.750000    6.070000   17.170000
  Q      9.520000    8.820000   20.890000
  Q      8.380000    9.760000   20.870000
  Q      8.970000    9.310000   20.510000
  Q     13.340000   20.130000   11.870000
  Q     14.130000   20.690000   13.010000
  Q     14.030000   20.270000   12.310000
  Q     10.730000   14.930000   15.180000
  Q     10.010000   14.800000   13.930000
  Q     10.420000   14.470000   14.580000
  Q     16.380000    2.230000    6.240000
  Q     15.890000    1.600000    4.890000
  Q     16.070000    1.600000    5.730000
  Q     14.450000    6.750000   14.850000
  Q     14.160000    5.610000   15.780000
  Q     14.530000    6.310000   15.580000
  Q     15.640000    0.790000   11.060000
  Q     15.440000   -0.590000   11.330000
  Q     15.890000    0.030000   11.040000
  Q     19.780000   10.600000   14.530000
  Q     20.830000   11.020000   15.530000
  Q     20.470000   10.480000   14.990000
  Q      7.100000    2.220000    7.430000
  Q      6.860000    2.140000    5.840000
  Q      6.700000    2.350000    6.670000
  Q      8.850000    4.350000   20.060000
  Q      9.850000    5.400000   20.490000
  Q      9.590000    4.630000   20.330000
  Q      0.800000   11.970000   15.090000
  Q      1.460000   11.270000   13.870000
  Q      1.280000   11.940000   14.370000
  Q     16.990000    7.950000    6.840000
  Q     17.830000    9.240000    6.760000
  Q     17.480000    8.540000    6.480000
  Q     19.110000    4.480000   14.920000
  Q     18.840000    4.010000   13.480000
  Q     19.320000    4.230000   14.130000
  Q     16.580000    7.130000   15.510000
  Q     18.220000    7.400000   15.530000
  Q     17.440000    7.100000   15.260000
  Q      4.250000   18.970000    3.540000
  Q      3.800000   17.910000    4.530000
  Q      4.210000   18.190000    3.850000
  Q     16.040000    3.660000    8.270000
  Q     17.510000    3.080000    8.160000
  Q     16.730000    3.330000    7.880000
  Q     12.740000   19.090000    9.940000
  Q     11.890000   18.580000   11.100000
  Q     12.130000   19.130000   10.520000
  Q     10.530000   17.220000   12.550000
  Q     11.730000   17.400000   13.600000
  Q     11.080000   17.660000   13.110000
  Q      5.070000    5.870000   10.080000
  Q      6.250000    4.970000   10.160000
  Q      5.780000    5.530000    9.770000
  Q      9.590000    4.890000   13.300000
  Q      8.400000    3.830000   13.680000
  Q      9.070000    4.140000   13.260000
  Q     12.500000   12.270000    1.610000
  Q     13.770000   11.970000    0.920000
  Q     13.270000   12.440000    1.390000
  Q      7.500000   17.020000    7.980000
  Q      5.870000   17.020000    7.770000
  Q      6.660000   16.710000    7.910000
  Q      9.450000    2.790000    4.480000
  Q      9.020000    2.450000    5.970000
  Q      9.410000    2.320000    5.200000
  Q      7.480000   20.270000   16.420000
  Q      7.400000   19.800000   15.010000
  Q      7.080000   19.920000   15.760000
  Q      6.280000    1.970000   11.580000
  Q      5.660000    0.710000   11.870000
  Q      5.950000    1.270000   11.370000
  Q     13.870000    4.080000   19.400000
  Q     14.940000    5.090000   19.020000
  Q     14.150000    4.780000   19.020000
  Q      7.090000   19.490000   10.630000
  Q      6.120000   18.960000    9.510000
  Q      6.410000   19.110000   10.280000
  Q     12.700000    9.140000    3.460000
  Q     14.030000    8.560000    2.720000
  Q     13.260000    8.950000    2.810000
  Q      7.780000   12.340000    3.620000
  Q      9.240000   12.640000    3.900000
  Q      8.550000   12.560000    3.420000
  Q     19.260000   13.080000   14.360000
  Q     18.140000   12.590000   15.300000
  Q     18.890000   12.960000   15.110000
  Q     12.840000    7.430000    1.820000
  Q     12.820000    6.460000    0.510000
  Q     12.700000    6.710000    1.350000
  Q     12.540000   12.290000   19.020000
  Q     13.190000   12.790000   17.690000
  Q     13.060000   12.780000   18.540000
  Q      3.050000   19.530000   12.840000
  Q      2.560000   20.340000   11.670000
  Q      2.530000   20.030000   12.440000
  Q      4.270000    7.440000   12.090000
  Q      4.580000    6.020000   12.400000
  Q      4.430000    6.650000   11.880000
  Q      4.400000   13.450000   14.800000
  Q      2.970000   12.860000   14.960000
  Q      3.740000   13.110000   15.240000
  Q      8.910000    0.030000   11.710000
  Q      9.710000    0.680000   12.840000
  Q      9.020000    0.380000   12.470000
  Q     12.410000    9.700000   16.520000
  Q     13.340000    9.160000   17.670000
  Q     12.610000    9.410000   17.300000
  Q      3.140000   15.240000   15.650000
  Q      2.330000   16.280000   16.450000
  Q      2.910000   16.010000   15.920000
  Q      5.290000    7.440000   20.400000
  Q      5.920000    8.000000   19.100000
  Q      5.290000    7.790000   19.630000
  Q      5.710000   13.280000    2.600000
  Q      5.020000   12.190000    3.530000
  Q      5.610000   12.790000    3.310000
  Q      9.670000   16.290000    4.260000
  Q     10.710000   16.860000    5.220000
  Q     10.090000   16.910000    4.670000
  Q      3.610000   14.460000    7.860000
  Q      3.230000   15.410000    9.020000
  Q      3.110000   15.020000    8.270000
  Q      4.900000    6.440000    3.890000
  Q      6.320000    7.080000    4.020000
  Q      5.580000    6.870000    3.640000
  Q      5.080000   13.880000   12.680000
  Q      5.430000   15.080000   13.500000
  Q      5.060000   14.360000   13.360000
  Q     20.020000    8.490000   16.080000
  Q     20.770000    7.340000   16.590000
  Q     20.100000    7.800000   16.500000
  Q      5.050000    6.390000   15.330000
  Q      5.490000    7.760000   15.740000
  Q      5.150000    7.000000   15.860000
  Q     16.650000   10.620000    2.350000
  Q     17.860000   10.910000    3.150000
  Q     17.100000   10.600000    3.050000
  Q      5.540000   13.680000    6.830000
  Q      4.560000   12.540000    6.790000
  Q      5.020000   13.130000    7.160000
  Q      7.700000   14.330000   18.920000
  Q      6.460000   14.820000   18.220000
  Q      7.040000   14.220000   18.420000
  Q      4.950000   14.930000    4.610000
  Q      3.960000   15.740000    4.070000
  Q      4.210000   15.280000    4.660000
  Q     14.510000   15.650000    3.180000
  Q     14.150000   17.180000    3.350000
  Q     14.060000   16.350000    3.430000
  Q      9.750000    9.320000    2.390000
  Q      9.230000    7.910000    2.910000
  Q      9.350000    8.560000    2.330000
  Q      1.990000   10.470000    5.820000
  Q      1.050000    9.800000    4.810000
  Q      1.760000    9.860000    5.320000
  Q     16.680000   14.150000   16.330000
  Q     16.560000   14.970000   17.600000
  Q     16.790000   14.840000   16.800000
  Q     13.900000    7.930000    5.470000
  Q     14.490000    7.460000    6.920000
  Q     14.280000    7.420000    6.060000
  Q     19.810000    8.830000   11.290000
  Q     18.780000    7.830000   10.720000
  Q     19.240000    8.540000   10.740000
  Q      3.450000   13.540000    4.970000
  Q      2.530000   12.350000    5.640000
  Q      3.010000   12.770000    5.030000
  Q     15.890000   11.960000    6.350000
  Q     16.830000   12.800000    5.410000
  Q     16.570000   12.370000    6.090000
  Q      6.660000   17.000000   15.050000
  Q      6.350000   17.030000   13.550000
  Q      6.750000   16.740000   14.270000
  Q      8.310000    3.770000   11.450000
  Q      7.740000    3.540000   10.070000
  Q      7.770000    3.900000   10.810000
  Q      3.810000    9.790000    8.800000
  Q      4.300000   10.730000    9.910000
  Q      3.810000   10.130000    9.560000
  Q      3.670000    9.960000   11.970000
  Q      2.870000    9.680000   13.200000
  Q      3.560000    9.650000   12.740000
  Q      8.670000   18.460000   18.180000
  Q      7.560000   19.140000   19.010000
  Q      8.270000   19.120000   18.520000
  Q     18.850000    5.870000   11.300000
  Q     18.250000    6.060000    9.900000
  Q     18.250000    6.080000   10.740000
  Q      4.500000    3.180000   16.830000
  Q      5.020000    4.580000   16.470000
  Q      4.410000    3.980000   16.640000
  Q     17.190000   16.450000    7.560000
  Q     17.020000   17.690000    6.850000
  Q     17.430000   17.160000    7.360000
  Q      7.040000   15.380000    6.570000
  Q      7.460000   14.870000    5.090000
  Q      7.080000   14.830000    5.900000
  Q     13.700000   16.050000   19.130000
  Q     12.910000   14.770000   19.580000
  Q     12.980000   15.570000   19.310000
  Q     16.480000    5.770000   11.410000
  Q     15.060000    6.080000   12.220000
  Q     15.660000    5.670000   11.740000
  Q     15.620000   14.940000   19.980000
  Q     14.840000   14.160000   18.890000
  Q     15.530000   14.500000   19.240000
  Q      5.190000    9.360000   14.210000
  Q      6.250000    9.860000   15.310000
  Q      5.910000    9.300000   14.700000
  Q     15.140000    7.750000   17.550000
  Q     15.490000    8.330000   19.020000
  Q     15.320000    8.360000   18.140000
  Q      0.810000    9.310000   12.340000
  Q      0.120000    9.800000   13.750000
  Q      0.740000    9.540000   13.200000
  Q     12.850000    3.670000   13.440000
  Q     14.190000    4.350000   13.490000
  Q     13.580000    3.880000   13.810000
  Q      8.220000   15.870000   20.660000
  Q      9.460000   15.010000   20.450000
  Q      8.770000   15.450000   20.190000
  Q      4.700000   17.730000   12.800000
  Q      5.700000   17.910000   11.790000
  Q      5.240000   17.440000   12.280000
  Q      8.250000   13.410000   16.830000
  Q      9.300000   13.420000   15.680000
  Q      8.660000   13.110000   16.160000
  Q     15.170000    4.500000   10.390000
  Q     14.070000    3.640000    9.510000
  Q     14.730000    4.200000    9.680000
  Q      8.480000    1.200000    8.860000
  Q      7.020000    1.300000    9.370000
  Q      7.750000    1.610000    9.070000
  Q      8.940000    9.340000   16.640000
  Q      8.870000   10.790000   16.300000
  Q      9.250000   10.050000   16.350000
  Q      5.320000   19.460000    7.220000
  Q      3.900000   18.870000    7.340000
  Q      4.750000   18.870000    7.420000
  Q     12.190000   18.590000    5.030000
  Q     13.070000   17.750000    6.020000
  Q     12.480000   18.310000    5.800000
  Q     13.490000    5.470000    5.770000
  Q     14.480000    4.480000    4.990000
  Q     13.750000    4.720000    5.380000
  Q      4.230000    6.490000    7.210000
  Q      5.310000    5.490000    7.760000
  Q      4.730000    5.810000    7.210000
  Q     11.730000    2.100000    5.030000
  Q     13.060000    2.780000    5.280000
  Q     12.550000    2.100000    5.150000
  Q     19.040000   11.110000    8.280000
  Q     17.970000   11.460000    7.310000
  Q     18.380000   10.940000    7.780000
  Q     18.400000   13.840000    6.520000
  Q     19.270000   15.040000    6.860000
  Q     19.010000   14.240000    6.960000
  Q     14.190000   17.170000   10.920000
  Q     14.820000   18.330000   11.730000
  Q     14.810000   17.680000   11.140000
  Q      7.950000    0.890000   16.910000
  Q      6.610000    1.300000   17.340000
  Q      7.230000    1.280000   16.800000
  Q      5.310000   16.160000   16.590000
  Q      5.590000   16.920000   17.870000
  Q      5.770000   16.370000   17.250000
  Q     10.050000   20.370000   10.710000
  Q      9.260000   21.150000    9.680000
  Q      9.330000   20.620000   10.360000
  Q      1.900000   12.700000   10.170000
  Q      2.000000   13.900000    9.110000
  Q      1.670000   13.160000    9.500000
  Q      3.960000    3.920000    6.920000
  Q      4.940000    2.870000    6.740000
  Q      4.150000    3.140000    6.850000
  Q     14.770000   18.550000    9.560000
  Q     14.500000   19.630000    8.510000
  Q     14.350000   18.900000    8.880000
  Q     20.220000   16.230000    9.840000
  Q     19.250000   16.800000   10.890000
  Q     19.940000   16.830000   10.350000
  Q     11.780000   15.370000   17.360000
  Q     10.460000   16.130000   16.930000
  Q     11.290000   15.870000   16.860000
  Q      6.870000    4.070000   18.060000
  Q      7.100000    3.340000   16.820000
  Q      6.960000    4.010000   17.240000
  Q      7.970000   17.810000    3.790000
  Q      6.530000   17.800000    3.880000
  Q      7.220000   17.780000    3.450000
  Q     12.160000   16.720000    1.530000
  Q     11.990000   16.000000    2.890000
  Q     11.810000   16.200000    2.080000
  Q     18.440000    8.440000    4.630000
  Q     18.330000    8.680000    3.130000
  Q     18.690000    8.400000    3.810000
  Q     13.260000   19.040000   15.120000
  Q     14.150000   20.340000   15.200000
  Q     13.460000   19.810000   15.350000
  Q      5.120000   11.940000   16.230000
  Q      6.200000   11.890000   17.280000
  Q      5.620000   11.530000   16.770000
  Q     14.320000   14.240000   15.760000
  Q     13.280000   13.190000   15.360000
  Q     13.900000   13.570000   15.850000
  Q     18.720000   16.130000   14.060000
  Q     17.730000   15.620000   15.190000
  Q     17.960000   15.960000   14.430000
  Q      8.960000   19.460000    6.500000
  Q      9.540000   20.340000    5.210000
  Q      8.960000   20.080000    5.840000
  Q      3.000000   13.670000   11.900000
  Q      2.340000   12.710000   12.730000
  Q      2.620000   12.980000   12.030000
  Q     10.690000    6.960000   21.990000
  Q     11.380000    7.210000   20.570000
  Q     10.730000    7.080000   21.120000
  Q     10.280000    2.640000   13.840000
  Q     10.990000    1.420000   14.530000
  Q     10.900000    2.050000   13.970000
  Q      1.360000    6.820000   15.560000
  Q      0.760000    7.910000   14.500000
  Q      1.200000    7.210000   14.830000
  Q      6.020000    9.910000    3.420000
  Q      7.510000    9.600000    2.950000
  Q      6.880000    9.840000    3.490000
  Q     21.700000   13.920000    9.990000
  Q     20.600000   14.230000   11.180000
  Q     20.900000   14.140000   10.360000
  Q     17.210000   17.220000   11.640000
  Q     17.710000   16.130000   12.450000
  Q     17.710000   16.590000   11.770000
  Q     14.930000   16.230000    7.190000
  Q     14.570000   17.720000    7.370000
  Q     14.850000   17.030000    6.920000
  Q      2.480000    6.400000   11.070000
  Q      1.340000    5.670000   10.320000
  Q      1.670000    6.300000   10.780000
  Q      6.050000   22.140000    6.400000
  Q      6.940000   21.000000    6.120000
  Q      6.320000   21.360000    6.520000
  Q      3.360000   17.850000   14.650000
  Q      4.120000   19.200000   14.910000
  Q      3.890000   18.530000   14.480000
  Q      3.300000    4.300000   15.120000
  Q      2.580000    5.520000   14.440000
  Q      2.740000    4.690000   14.620000
  Q      2.440000   16.410000   11.220000
  Q      3.960000   16.250000   11.290000
  Q      3.180000   16.010000   11.090000
  Q     11.670000   10.100000   18.920000
  Q     10.470000   10.590000   19.760000
  Q     11.270000   10.550000   19.530000
  Q     17.920000   10.850000   13.040000
  Q     19.100000   11.050000   12.020000
  Q     18.630000   11.230000   12.720000
  Q     18.680000   14.870000    4.040000
  Q     17.260000   14.450000    3.510000
  Q     17.920000   14.480000    4.050000
  Q     15.160000   17.710000   16.030000
  Q     16.170000   16.910000   16.830000
  Q     15.880000   17.530000   16.330000
  Q     12.410000    2.080000    8.860000
  Q     11.790000    3.450000    9.540000
  Q     12.360000    2.780000    9.410000
  Q      0.740000   12.200000    6.660000
  Q      1.630000   12.150000    7.860000
  Q      1.410000   11.950000    7.080000
  Q      9.870000   11.070000    0.690000
  Q      9.880000   12.040000    1.920000
  Q     10.180000   11.460000    1.410000

----------------------------
CARTESIAN COORDINATES (A.U.)
----------------------------
  NO LB      ZA    FRAG     MASS         X           Y           Z
   0 C     6.0000    0    12.011   19.313001   22.922378   20.314556
   1 H     1.0000    0     1.008   19.634255   24.056214   22.015309
   2 H     1.0000    0     1.008   17.706734   21.750748   20.692501
   3 C     6.0000    0    12.011   21.561775   21.467289   19.539768
   4 H     1.0000    0     1.008   21.032652   20.654707   17.612248
   5 H     1.0000    0     1.008   23.262529   22.638919   19.218515
   6 C     6.0000    0    12.011   22.109796   19.483076   21.523981
   7 H     1.0000    0     1.008   21.788542   20.390145   23.432604
   8 H     1.0000    0     1.008   24.131803   18.802775   21.618467
   9 C     6.0000    0    12.011   20.560220   17.272097   21.127138
  10 H     1.0000    0     1.008   21.731851   15.609138   20.352350
  11 H     1.0000    0     1.008   18.878364   17.498864   20.087789
  12 O     8.0000    0    15.999   19.539768   16.497309   23.527090
  13 H     1.0000    0     1.008   17.744528   16.667385   23.338118
  14 O     8.0000    0    15.999   18.557111   24.623132   18.349241
  15 H     1.0000    0     1.008   17.007535   25.549097   18.746083
  16 O     8.0000    0    15.999   17.461069   16.289439   14.928836
  17 H     1.0000    0     1.008   19.275207   16.686282   15.268987
  18 H     1.0000    0     1.008   17.045330   17.536659   13.757206
  19 O     8.0000    0    15.999   19.861022   11.678508   13.152494
  20 H     1.0000    0     1.008   20.484631   11.168281   14.664275
  21 H     1.0000    0     1.008   19.369693   13.341467   13.606028
  22 O     8.0000    0    15.999   23.508193   20.616912   12.018658
  23 H     1.0000    0     1.008   25.190049   20.314556   11.092692
  24 H     1.0000    0     1.008   24.131803   21.467289   13.568234
  25 O     8.0000    0    15.999   25.756967   26.550652   22.431049
  26 H     1.0000    0     1.008   27.117570   25.719173   21.599570
  27 H     1.0000    0     1.008   25.038871   25.303433   23.470399
  28 O     8.0000    0    15.999   28.251406   16.308337   21.221624
  29 H     1.0000    0     1.008   28.383687   17.933501   20.276761
  30 H     1.0000    0     1.008   29.517522   16.648487   22.638919
  31 O     8.0000    0    15.999   22.053104   27.268748   15.287884
  32 H     1.0000    0     1.008   21.297214   27.287645   13.530439
  33 H     1.0000    0     1.008   20.786987   26.418371   16.232747
  34 O     8.0000    0    15.999   13.284775   16.761871   18.141371
  35 H     1.0000    0     1.008   14.796556   15.798110   17.839015
  36 H     1.0000    0     1.008   11.886377   15.628035   17.952398
  37 O     8.0000    0    15.999   14.324124   27.949050   19.105131
  38 H     1.0000    0     1.008   13.417056   29.082885   17.990193
  39 H     1.0000    0     1.008   13.246980   26.588447   19.728741
  40 O     8.0000    0    15.999   16.591795   24.112905   13.435953
  41 H     1.0000    0     1.008   15.476857   25.454611   12.963521
  42 H     1.0000    0     1.008   16.780768   24.056214   15.250090
  43 O     8.0000    0    15.999   20.125583   23.867241    9.694295
  44 H     1.0000    0     1.008   18.991748   23.602679   11.092692
  45 H     1.0000    0     1.008   21.316111   22.355460    9.750987
  46 O     8.0000    0    15.999   32.011961   16.931946   24.396364
  47 H     1.0000    0     1.008   33.013516   16.875254   22.733405
  48 H     1.0000    0     1.008   32.541084   15.665830   25.681378
  49 O     8.0000    0    15.999   27.325440   22.676714   15.042220
  50 H     1.0000    0     1.008   28.345892   22.072001   16.383926
  51 H     1.0000    0     1.008   27.098673   24.490851   15.004426
  52 O     8.0000    0    15.999   26.985289   13.284775   16.591795
  53 H     1.0000    0     1.008   27.419926   11.508432   16.535104
  54 H     1.0000    0     1.008   27.854563   13.983973   18.065782
  55 O     8.0000    0    15.999   20.616912   11.395049   26.588447
  56 H     1.0000    0     1.008   19.539768   12.698960   25.964837
  57 H     1.0000    0     1.008   20.824782   11.810788   28.289200
  58 O     8.0000    0    15.999   15.609138   23.357015   25.171152
  59 H     1.0000    0     1.008   15.817008   21.580672   24.887693
  60 H     1.0000    0     1.008   15.382371   23.413707   27.041981
  61 O     8.0000    0    15.999   17.347686   30.556872   23.508193
  62 H     1.0000    0     1.008   16.119364   30.764741   24.944385
  63 H     1.0000    0     1.008   16.176056   29.668700   22.506638
  64 O     8.0000    0    15.999   15.212295   13.303672   26.097118
  65 H     1.0000    0     1.008   15.628035   12.850138   27.835666
  66 H     1.0000    0     1.008   14.248535   14.928836   26.248296
  67 O     8.0000    0    15.999   21.977515   10.374596   18.349241
  68 H     1.0000    0     1.008   20.503529   11.413946   18.821672
  69 H     1.0000    0     1.008   23.489296   11.281665   18.689391
  70 O     8.0000    0    15.999   30.424591   20.446837   18.462624
  71 H     1.0000    0     1.008   30.462385   21.977515   19.539768
  72 H     1.0000    0     1.008   31.993063   20.314556   17.479967
  73 O     8.0000    0    15.999   30.575769   24.755412   21.599570
  74 H     1.0000    0     1.008   32.182036   24.339673   22.544433
  75 H     1.0000    0     1.008   31.161584   26.040426   20.333453
  76 O     8.0000    0    15.999   23.678268   31.029303   20.049994
  77 H     1.0000    0     1.008   22.487741   31.085995   18.670494
  78 H     1.0000    0     1.008   23.942830   29.347447   20.446837
  79 O     8.0000    0    15.999   21.561775   32.692262   15.665830
  80 H     1.0000    0     1.008   22.355460   34.204043   15.004426
  81 H     1.0000    0     1.008   21.448392   31.501735   14.286330
  82 O     8.0000    0    15.999   22.563330   28.421481   10.147829
  83 H     1.0000    0     1.008   22.242077   26.701830    9.826576
  84 H     1.0000    0     1.008   24.018419   28.648248    9.089583
  85 O     8.0000    0    15.999   13.095802   12.906829   11.168281
  86 H     1.0000    0     1.008   11.470638   12.283220   11.848583
  87 H     1.0000    0     1.008   13.946179   14.097357   12.188734
  88 O     8.0000    0    15.999   14.777658   19.350796   11.772994
  89 H     1.0000    0     1.008   14.475302   19.313001    9.996651
  90 H     1.0000    0     1.008   14.758761   21.127138   12.377706
  91 O     8.0000    0    15.999   14.796556   18.103576   23.375912
  92 H     1.0000    0     1.008   14.021768   18.046885   21.731851
  93 H     1.0000    0     1.008   13.398158   17.990193   24.490851
  94 O     8.0000    0    15.999   27.533310   29.252961   26.493960
  95 H     1.0000    0     1.008   27.060878   28.515967   24.906590
  96 H     1.0000    0     1.008   29.347447   29.252961   26.380577
  97 O     8.0000    0    15.999   11.791891   23.772755   21.675159
  98 H     1.0000    0     1.008   13.001316   23.621577   23.073556
  99 H     1.0000    0     1.008   12.547782   22.790097   20.257864
 100 O     8.0000    0    15.999   28.572659   18.746083    9.826576
 101 H     1.0000    0     1.008   29.914365   19.690946    8.938405
 102 H     1.0000    0     1.008   29.441933   17.536659   10.884823
 103 O     8.0000    0    15.999   25.870351   13.133597   25.152255
 104 H     1.0000    0     1.008   25.813659   14.418610   23.848344
 105 H     1.0000    0     1.008   24.112905   12.717857   25.416817
 106 O     8.0000    0    15.999   13.379261   21.958618   17.404378
 107 H     1.0000    0     1.008   13.341467   20.031097   17.347686
 108 H     1.0000    0     1.008   12.150939   22.620022   16.289439
 109 O     8.0000    0    15.999   21.542878   18.273652   27.778974
 110 H     1.0000    0     1.008   20.087789   18.651597   28.950604
 111 H     1.0000    0     1.008   20.900371   17.083124   26.531755
 112 O     8.0000    0    15.999   22.563330   16.610693   15.325679
 113 H     1.0000    0     1.008   23.716063   15.268987   15.779213
 114 H     1.0000    0     1.008   23.734960   17.782323   14.513097
 115 O     8.0000    0    15.999   23.319220   23.357015   26.380577
 116 H     1.0000    0     1.008   22.790097   21.618467   26.550652
 117 H     1.0000    0     1.008   21.788542   24.207392   26.777419
 118 O     8.0000    0    15.999   27.401029   27.873460   15.231193
 119 H     1.0000    0     1.008   28.345892   27.911255   16.761871
 120 H     1.0000    0     1.008   25.775864   28.251406   15.817008
 121 O     8.0000    0    15.999   22.449946   15.911494    9.240761
 122 H     1.0000    0     1.008   21.618467   16.799665   10.469083
 123 H     1.0000    0     1.008   21.486186   14.380816    9.259658
 124 O     8.0000    0    15.999   17.196508   12.396603   19.823227
 125 H     1.0000    0     1.008   16.270542   13.662720   20.749193
 126 H     1.0000    0     1.008   15.987083   10.998206   19.823227
 127 Q     0.6645    0     0.000   17.895706   11.546227   31.766296
 128 Q     0.6645    0     0.000   15.117809   10.355699   31.709605
 129 Q    -1.3290    0     0.000   16.289439   11.451740   31.463940
 130 Q     0.6645    0     0.000    2.381055   18.103576   18.613802
 131 Q     0.6645    0     0.000    1.814137   15.628035   19.917713
 132 Q    -1.3290    0     0.000    1.700754   17.196508   19.785433
 133 Q     0.6645    0     0.000   14.909939   29.763187    5.102261
 134 Q     0.6645    0     0.000   15.741419   26.834111    5.555795
 135 Q    -1.3290    0     0.000   15.420165   28.421481    5.914843
 136 Q     0.6645    0     0.000   24.358570    4.535343   29.252961
 137 Q     0.6645    0     0.000   23.111351    4.894391   31.917474
 138 Q    -1.3290    0     0.000   23.999522    4.062911   30.764741
 139 Q     0.6645    0     0.000   24.396364   18.594905    1.795240
 140 Q     0.6645    0     0.000   23.923933   18.972850   -1.001555
 141 Q    -1.3290    0     0.000   24.755412   19.105131    0.359048
 142 Q     0.6645    0     0.000   14.210741    2.815692   25.492406
 143 Q     0.6645    0     0.000   12.982419    3.722760   27.816769
 144 Q    -1.3290    0     0.000   13.379261    3.855041   26.267193
 145 Q     0.6645    0     0.000   30.519077    4.346370   26.871906
 146 Q     0.6645    0     0.000   28.062433    4.629829   25.379022
 147 Q    -1.3290    0     0.000   29.612009    4.270781   25.586892
 148 Q     0.6645    0     0.000   12.869035   10.242316   24.831001
 149 Q     0.6645    0     0.000   11.527329    7.710083   25.964837
 150 Q    -1.3290    0     0.000   11.659610    9.278555   25.435714
 151 Q     0.6645    0     0.000   23.621577    1.908623   12.736754
 152 Q     0.6645    0     0.000   25.001077    0.453534   14.664275
 153 Q    -1.3290    0     0.000   23.791652    1.266117   14.172946
 154 Q     0.6645    0     0.000   23.545988   31.728502   29.423036
 155 Q     0.6645    0     0.000   25.511303   31.690707   27.344337
 156 Q    -1.3290    0     0.000   24.509748   32.352111   28.364789
 157 Q     0.6645    0     0.000    8.428179   18.292549   11.584021
 158 Q     0.6645    0     0.000   10.922617   18.613802   13.076905
 159 Q    -1.3290    0     0.000    9.278555   18.651597   12.869035
 160 Q     0.6645    0     0.000   24.679823   38.437030   10.979309
 161 Q     0.6645    0     0.000   25.738070   41.139338    9.732090
 162 Q    -1.3290    0     0.000   25.567995   39.476379    9.996651
 163 Q     0.6645    0     0.000   30.216721   27.967947    3.458199
 164 Q     0.6645    0     0.000   28.383687   25.813659    4.044014
 165 Q    -1.3290    0     0.000   29.366344   26.947495    4.478651
 166 Q     0.6645    0     0.000   23.224734    2.891281   23.451501
 167 Q     0.6645    0     0.000   23.905036    3.666069   20.711398
 168 Q    -1.3290    0     0.000   24.245186    3.042459   22.185385
 169 Q     0.6645    0     0.000   21.883029    4.932185   35.300084
 170 Q     0.6645    0     0.000   20.314556    7.124268   35.942591
 171 Q    -1.3290    0     0.000   21.297214    6.387274   35.035523
 172 Q     0.6645    0     0.000   17.744528   40.345653   13.908384
 173 Q     0.6645    0     0.000   20.220070   41.309413   15.023323
 174 Q    -1.3290    0     0.000   18.632700   41.044852   15.004426
 175 Q     0.6645    0     0.000   30.197824   16.497309    6.557350
 176 Q     0.6645    0     0.000   30.424591   14.116254    4.648726
 177 Q    -1.3290    0     0.000   29.725392   15.136706    5.725870
 178 Q     0.6645    0     0.000   15.684727   11.867480    9.410836
 179 Q     0.6645    0     0.000   17.876809   10.809233    7.672288
 180 Q    -1.3290    0     0.000   16.591795   11.754097    8.031336
 181 Q     0.6645    0     0.000   31.274968   21.996412   31.199378
 182 Q     0.6645    0     0.000   29.177372   23.697166   30.235618
 183 Q    -1.3290    0     0.000   30.651358   23.149145   30.292310
 184 Q     0.6645    0     0.000   32.786748   37.756728   19.577563
 185 Q     0.6645    0     0.000   33.674920   35.772516   17.612248
 186 Q    -1.3290    0     0.000   33.826098   37.000838   18.632700
 187 Q     0.6645    0     0.000   39.835427   20.900371   19.369693
 188 Q     0.6645    0     0.000   38.626002   23.413707   18.953953
 189 Q    -1.3290    0     0.000   38.644899   21.826337   19.086234
 190 Q     0.6645    0     0.000   21.523981   34.752064    5.272336
 191 Q     0.6645    0     0.000   21.561775   37.567756    6.254994
 192 Q    -1.3290    0     0.000   22.128693   36.131564    5.914843
 193 Q     0.6645    0     0.000   18.424830   34.128454   15.439063
 194 Q     0.6645    0     0.000   16.554001   35.413468   17.007535
 195 Q    -1.3290    0     0.000   17.007535   34.657577   15.703624
 196 Q     0.6645    0     0.000    7.237651   19.558665   32.182036
 197 Q     0.6645    0     0.000    5.385719   17.404378   32.805646
 198 Q    -1.3290    0     0.000    5.782562   18.953953   32.446598
 199 Q     0.6645    0     0.000   34.015070    6.614041   21.335008
 200 Q     0.6645    0     0.000   32.805646    5.253439   23.602679
 201 Q    -1.3290    0     0.000   33.958379    5.952637   22.752303
 202 Q     0.6645    0     0.000   21.958618   38.947256   28.818324
 203 Q     0.6645    0     0.000   19.256309   39.022845   27.703385
 204 Q    -1.3290    0     0.000   20.541323   39.665352   28.402584
 205 Q     0.6645    0     0.000    6.954192   13.776104   32.371009
 206 Q     0.6645    0     0.000    6.557350   14.456405   35.016625
 207 Q    -1.3290    0     0.000    6.066021   14.154049   33.542639
 208 Q     0.6645    0     0.000   16.478412   38.531516   24.812104
 209 Q     0.6645    0     0.000   17.971296   36.074872   25.284536
 210 Q    -1.3290    0     0.000   16.780768   37.189810   25.549097
 211 Q     0.6645    0     0.000   16.742974   30.953714   34.581988
 212 Q     0.6645    0     0.000   15.250090   31.615118   32.163139
 213 Q    -1.3290    0     0.000   16.572898   31.558426   33.089105
 214 Q     0.6645    0     0.000   35.016625   12.321014   14.399713
 215 Q     0.6645    0     0.000   33.183591    9.921062   14.286330
 216 Q    -1.3290    0     0.000   33.731611   11.395049   14.702069
[...]
 335   Q   :   -0.267056089   -0.075783352    0.087925310
 336   Q   :    0.210198148    0.027886018    0.159279299
 337   Q   :    0.049879946    0.031093818   -0.240852832
 338   Q   :    0.121885617    0.037956271   -0.272618793
 339   Q   :   -0.237154677   -0.125380856    0.038685818
 340   Q   :    0.122881232    0.093334201    0.232378772
 341   Q   :    0.052316186    0.216787633    0.127851770
 342   Q   :    0.044275209   -0.066516323   -0.262919034
 343   Q   :   -0.093313347   -0.156446102    0.122438197
 344   Q   :   -0.167833603   -0.151830072    0.143223490
 345   Q   :    0.028003398   -0.009310026   -0.267190745
 346   Q   :    0.136729373    0.153229768    0.122916533
 347   Q   :    0.204407703   -0.186708941    0.124286799
 348   Q   :    0.028330486    0.104717573   -0.289901907
 349   Q   :   -0.235020867    0.084626411    0.158916485
 350   Q   :   -0.053508072    0.271675858    0.087012030
 351   Q   :    0.043189299   -0.207022571    0.192332023
 352   Q   :    0.013167199   -0.060662503   -0.272038841
 353   Q   :    0.196510250    0.095855796   -0.126951585
 354   Q   :   -0.239056160   -0.067601826   -0.103544525
 355   Q   :    0.037994693   -0.034221853    0.244735181
 356   Q   :   -0.020582554   -0.120370817   -0.267421013
 357   Q   :    0.248116875    0.098187410    0.120214441
 358   Q   :   -0.224313015    0.012023042    0.139209850
 359   Q   :   -0.047941694    0.097065162   -0.249355844
 360   Q   :    0.239535598   -0.082299331    0.113220288
 361   Q   :   -0.192588685   -0.012328014    0.129149410
 362   Q   :    0.067718090   -0.254591937   -0.080405124
 363   Q   :   -0.217039653    0.089511048    0.198846665
 364   Q   :    0.143723711    0.165813895   -0.115230921
 365   Q   :    0.017946158   -0.126846087    0.272813733
 366   Q   :    0.214961487    0.056909751   -0.156679723
 367   Q   :   -0.232196201    0.067191473   -0.107902962
 368   Q   :    0.019664358    0.152524311   -0.234566774
 369   Q   :   -0.187236815   -0.191099902    0.052201521
 370   Q   :    0.166326992    0.034722491    0.178028736
 371   Q   :   -0.131912278   -0.205876775   -0.123329426
 372   Q   :    0.220793508   -0.026961622    0.202894264
 373   Q   :   -0.086619425    0.236472015   -0.071189316
 374   Q   :    0.160583007   -0.177289498   -0.116133476
 375   Q   :    0.046786632    0.113864555    0.239051631
 376   Q   :   -0.197618293    0.072088139   -0.136921735
 377   Q   :   -0.242148530   -0.154594333    0.106404218
 378   Q   :    0.227394463    0.064930974    0.133537622
 379   Q   :    0.013962916    0.089403917   -0.243353189
 380   Q   :    0.010490147   -0.154748415   -0.241074199
 381   Q   :    0.139028908    0.263930008    0.039197266
 382   Q   :   -0.150406446   -0.097880991    0.189856967
 383   Q   :   -0.023028065    0.258665253   -0.166124585
 384   Q   :    0.267530782   -0.162569437    0.022551249
 385   Q   :   -0.240522505   -0.105388789    0.152155293
 386   Q   :   -0.034135737   -0.232685591   -0.211263636
 387   Q   :    0.115868166    0.243592832   -0.045979881
 388   Q   :   -0.077845995   -0.019356555    0.262076555
 389   Q   :   -0.143702417    0.014041779   -0.259351727
 390   Q   :    0.278406123    0.117749264    0.015008688
 391   Q   :   -0.128291939   -0.124123969    0.238127897
 392   Q   :    0.180057084    0.191135427   -0.126032854
 393   Q   :   -0.157174995   -0.199798179   -0.141414557
 394   Q   :   -0.025965994    0.003261342    0.268572334
 395   Q   :    0.227856435    0.048180346    0.171617963
 396   Q   :   -0.173389995    0.196680868   -0.043029705
 397   Q   :   -0.062965189   -0.252653307   -0.119993528
 398   Q   :    0.267925346   -0.120186061   -0.042921077
 399   Q   :   -0.087256261    0.187331510   -0.263814740
 400   Q   :   -0.183234323   -0.056061568    0.306742807
 401   Q   :    0.141218479   -0.197565695   -0.079997170
 402   Q   :    0.042245874    0.293104261   -0.038025129
 403   Q   :   -0.179782510   -0.082799180    0.116965538
 404   Q   :    0.129008101    0.248057640    0.036796678
 405   Q   :   -0.025319092   -0.172303797    0.182360136
 406   Q   :   -0.097178782   -0.078492283   -0.223131421
 407   Q   :    0.078078239    0.238838934    0.174411482
 408   Q   :   -0.229019008   -0.001293431   -0.154460679
 409   Q   :    0.151527316   -0.238911334   -0.028620849
 410   Q   :   -0.049322588   -0.227364138   -0.155549835
 411   Q   :   -0.084393837    0.045897071    0.261219743
 412   Q   :    0.136423374    0.190965105   -0.109668342
 413   Q   :   -0.110024410    0.167722473   -0.170442172
 414   Q   :    0.066048427    0.026613380    0.241604982
 415   Q   :    0.045883747   -0.185021365   -0.079482353
 416   Q   :    0.195355980    0.092090009    0.203436724
 417   Q   :   -0.143692370   -0.229502393    0.009970734
 418   Q   :   -0.046081050    0.149971938   -0.212080823
 419   Q   :    0.126801213    0.209981090   -0.004247872
 420   Q   :   -0.134851655   -0.121514657    0.181079457
 421   Q   :    0.007896870   -0.099323016   -0.188372750
 422   Q   :   -0.234528885   -0.144186511    0.074745124
 423   Q   :    0.083869302    0.140780402   -0.233944019
 424   Q   :    0.143250069    0.003284802    0.153270660
 425   Q   :   -0.045329089    0.100849527    0.286906667
 426   Q   :   -0.116192472    0.088781931   -0.194534680
 427   Q   :    0.168555850   -0.189476803   -0.072044675
 428   Q   :    0.182324830   -0.053983127    0.191684935
 429   Q   :   -0.000663539   -0.125600337   -0.265270674
 430   Q   :   -0.180958898    0.173039072    0.073619871
 431   Q   :    0.008286222   -0.118211503   -0.267592319
 432   Q   :    0.177153501    0.201146803    0.111862786
 433   Q   :   -0.188413554   -0.086738584    0.158841772
 434   Q   :    0.030696380    0.112958151   -0.264687891
 435   Q   :   -0.245111680    0.025844683    0.155640340
 436   Q   :    0.213452972   -0.127616254    0.108513203
 437   Q   :    0.117817580   -0.231845058   -0.099100574
 438   Q   :   -0.241048742   -0.015539421    0.163619138
 439   Q   :    0.122210008    0.253391599   -0.056273423
 440   Q   :    0.210501868   -0.066491633    0.174298200
 441   Q   :    0.020376494   -0.008165805   -0.274295112
 442   Q   :   -0.223002675    0.068281739    0.102773213
 443   Q   :    0.057771246   -0.306797361    0.069125730
 444   Q   :    0.193458413    0.167305818   -0.060492247
 445   Q   :   -0.251825437    0.137675550   -0.000861111
 446   Q   :   -0.125848619   -0.324156326    0.080257492
 447   Q   :   -0.152760134    0.168689154   -0.167135550
 448   Q   :    0.279062786    0.155167524    0.088691314
 449   Q   :    0.001087350    0.163218093    0.196589305
 450   Q   :    0.107601824    0.019451092   -0.209649107
 451   Q   :   -0.106062983   -0.182323464    0.005507875
 452   Q   :    0.230074718    0.127894938   -0.047333802
 453   Q   :   -0.005530694   -0.271294626    0.099099777
 454   Q   :   -0.222634784    0.152691791   -0.043134079
 455   Q   :    0.222853177    0.029357095   -0.092001449
 456   Q   :   -0.177513813    0.129951528    0.147309638
 457   Q   :   -0.048539648   -0.155222910   -0.044158327
 458   Q   :    0.009168084    0.146681597    0.239713568
 459   Q   :   -0.240672478   -0.096103265   -0.105560657
 460   Q   :    0.232522767   -0.051186537   -0.124003217
 461   Q   :   -0.207430935    0.024914805   -0.141162281
 462   Q   :    0.095834714    0.156955921    0.159985053
 463   Q   :    0.116332558   -0.177017176   -0.017069567
 464   Q   :   -0.055150467   -0.199466014   -0.171217183
 465   Q   :    0.047107147   -0.024006881    0.258873298
 466   Q   :    0.009688760    0.219870242   -0.077415632
 467   Q   :    0.012796881   -0.060743749   -0.216652239
 468   Q   :   -0.201349158    0.084143339    0.178074128
 469   Q   :    0.182429390   -0.033064790    0.045398196
 470   Q   :   -0.240010442   -0.062915665   -0.136175227
 471   Q   :    0.208390781    0.165255321   -0.124714680
 472   Q   :    0.026796708   -0.093164774    0.260758593
 473   Q   :   -0.190146353    0.143872895    0.178743454
 474   Q   :    0.215771914   -0.142092287    0.099869720
 475   Q   :   -0.020724824   -0.000286296   -0.264414074
 476   Q   :   -0.202667221    0.122188073    0.189837826
 477   Q   :    0.157162073    0.176110924   -0.154051746
 478   Q   :    0.040920994   -0.301770256   -0.046061559
 479   Q   :   -0.128243102    0.109073937    0.228613987
 480   Q   :    0.195964166    0.098584014   -0.138653507
 481   Q   :   -0.067757194   -0.207447183   -0.077169876
 482   Q   :    0.125924444    0.072556406    0.192865567
 483   Q   :   -0.176944452   -0.158628433   -0.043576123
 484   Q   :    0.054826298    0.075339676   -0.149032920
 485   Q   :    0.228583144   -0.144396610   -0.066240868
 486   Q   :   -0.229344267   -0.117433351    0.087592381
 487   Q   :    0.007355053    0.251667405   -0.016930690
 488   Q   :   -0.121140085   -0.250485295    0.097473007
 489   Q   :   -0.149029604    0.247072295   -0.017760967
 490   Q   :    0.257545141    0.000546416   -0.070345184
 491   Q   :    0.181877568    0.200669590   -0.069783849
 492   Q   :   -0.283591264    0.016045422   -0.035890997
 493   Q   :    0.093557517   -0.217082350    0.102965626
 494   Q   :   -0.082994551    0.081709524   -0.225207572
 495   Q   :    0.197475699   -0.188736951    0.070550643
 496   Q   :   -0.118121588    0.105665286    0.159863288
 497   Q   :   -0.078824503    0.212674728    0.111663879
 498   Q   :    0.227112911   -0.082830635   -0.124127670
 499   Q   :   -0.148928071   -0.135901694    0.015455150
 500   Q   :   -0.164648583    0.244239444    0.009221585
 501   Q   :    0.179896075   -0.085269625    0.163305180
 502   Q   :   -0.025019267   -0.160657009   -0.176737241
 503   Q   :   -0.293620089    0.017643619   -0.040582026
 504   Q   :    0.146028482    0.216383233    0.039393483
 505   Q   :    0.154146089   -0.236241838   -0.012827288
 506   Q   :    0.216015763    0.070061526    0.159838543
 507   Q   :   -0.140260815    0.202642910   -0.165924805
 508   Q   :   -0.064657788   -0.270303869    0.007206325
 509   Q   :   -0.203948337   -0.119505284   -0.152230632
 510   Q   :    0.078339744    0.275300301   -0.047071830
 511   Q   :    0.132512145   -0.157824685    0.195094985
 512   Q   :   -0.210931330   -0.167105131   -0.070245288
 513   Q   :   -0.001988003    0.185562884    0.171090157
 514   Q   :    0.223356252   -0.033883361   -0.087030701
 515   Q   :    0.257727698   -0.144363883    0.061172396
 516   Q   :   -0.220106813    0.006257784    0.215283290
 517   Q   :   -0.033791238    0.127975875   -0.272122531
 518   Q   :   -0.168436514   -0.063452764   -0.229589419
 519   Q   :   -0.071654969    0.187397506    0.209562666
 520   Q   :    0.236799681   -0.118054046    0.016479578
 521   Q   :    0.256297623   -0.077343420    0.115370278
 522   Q   :   -0.011207588    0.158588669   -0.198810696
 523   Q   :   -0.247191370   -0.076356009    0.097213951
 524   Q   :    0.087343167   -0.156982861    0.215202176
 525   Q   :    0.092839263    0.193882651   -0.096525059
 526   Q   :   -0.191630032   -0.041010325   -0.105827365
 527   Q   :   -0.061904601    0.312326877    0.026927546
 528   Q   :    0.258226439   -0.066755675   -0.037875195
 529   Q   :   -0.214222107   -0.247934272    0.010287690
 530   Q   :    0.131306685   -0.077474342    0.183352521
 531   Q   :    0.063826487    0.267593078   -0.127691087
 532   Q   :   -0.188943619   -0.178467665   -0.064137983
 533   Q   :    0.085459871   -0.226980804   -0.181613129
 534   Q   :   -0.198668477   -0.031985674    0.149047544
 535   Q   :    0.125014706    0.266256205    0.020428022
 536   Q   :    0.143178913   -0.171051469    0.157397805
 537   Q   :   -0.240183059    0.055919154    0.020937109
 538   Q   :    0.103867380    0.105779230   -0.168581289
 539   Q   :   -0.024140608    0.000524802    0.304512821
 540   Q   :    0.052256622   -0.270472608   -0.147969981
 541   Q   :   -0.034051913    0.265998771   -0.150981797
 542   Q   :    0.265076985    0.010121749    0.142600097
 543   Q   :   -0.247016374    0.007862703    0.188513014
 544   Q   :   -0.019858041   -0.012823280   -0.329952129
 545   Q   :    0.136988991    0.204719422   -0.192502596
 546   Q   :    0.063824623   -0.054644118    0.268997316
 547   Q   :   -0.204918850   -0.155451281   -0.075793329
 548   Q   :   -0.088449066    0.027485680    0.252298229
 549   Q   :   -0.151937344    0.117167239   -0.260015138
 550   Q   :    0.246977243   -0.146391355   -0.000889835
 551   Q   :   -0.056348797   -0.263560119   -0.095684967
 552   Q   :    0.215835035    0.155945091   -0.063218675
 553   Q   :   -0.148373463    0.117178562    0.158014832
 554   Q   :   -0.149666044    0.144323015   -0.179716269
 555   Q   :    0.193833261    0.131253639    0.160241164
 556   Q   :   -0.031930179   -0.275770398    0.027445452
 557   Q   :    0.173590414    0.271158737   -0.037010868
 558   Q   :   -0.177290747   -0.099451902   -0.135390457
 559   Q   :   -0.000521076   -0.157649069    0.177748308
 560   Q   :    0.254502468    0.045302253   -0.125201973
 561   Q   :   -0.055505234   -0.110270125    0.225511736
 562   Q   :   -0.195876459    0.068406150   -0.096439872
 563   Q   :    0.013812381   -0.157818935    0.171846946
 564   Q   :    0.181761741    0.076494619   -0.179453725
 565   Q   :   -0.188862285    0.079476242   -0.007959227
 566   Q   :    0.156893050    0.279602937   -0.031969933
 567   Q   :   -0.099148659   -0.095011574    0.288619084
 568   Q   :   -0.049712746   -0.186274592   -0.250411473
 569   Q   :   -0.005971216   -0.034890742    0.267921033
 570   Q   :    0.203415422    0.040173999   -0.166159746
 571   Q   :   -0.195636663   -0.001427896   -0.100576190
 572   Q   :   -0.196188769    0.161856932   -0.023775822
 573   Q   :    0.012208725   -0.218204513    0.190405987
 574   Q   :    0.181895878    0.053213812   -0.155717818
 575   Q   :    0.051950311   -0.131864764    0.262109434
 576   Q   :   -0.140195254    0.207226890   -0.076704576
 577   Q   :    0.077698955   -0.072998691   -0.182421708
 578   Q   :   -0.280275356    0.027890412   -0.031229167
 579   Q   :    0.188269945   -0.067656183   -0.175800009
 580   Q   :    0.080220765    0.042820799    0.197066924
 581   Q   :    0.222206954   -0.073112665   -0.088929844
 582   Q   :   -0.081594899    0.015128932    0.258298419
 583   Q   :   -0.139874175    0.066127913   -0.165477656
 584   Q   :   -0.189735627    0.232329409   -0.036715599
 585   Q   :   -0.004516856   -0.163642396    0.242272943
 586   Q   :    0.186383346   -0.064667115   -0.196652581
 587   Q   :    0.029566810   -0.247186590    0.096920826
 588   Q   :   -0.087387575    0.201674138    0.128772418
 589   Q   :    0.061236166    0.036338934   -0.232612820
 590   Q   :    0.253905144    0.019610927    0.076897911
 591   Q   :   -0.099401634   -0.224709000   -0.164308251
 592   Q   :   -0.158045043    0.194793845    0.087452036
 593   Q   :   -0.084759082    0.285272425   -0.060608702
 594   Q   :    0.224108128   -0.113693443   -0.160358631
 595   Q   :   -0.143162345   -0.160167829    0.220426729
 596   Q   :   -0.159251771   -0.190973809    0.052303654
 597   Q   :    0.072734720    0.241901766    0.166315213
 598   Q   :    0.084367652   -0.042211322   -0.205720595
 599   Q   :    0.200373312   -0.119622220    0.161235776
 600   Q   :   -0.027622320    0.269046921   -0.046698815
 601   Q   :   -0.170851031   -0.152921675   -0.125031868
 602   Q   :   -0.241984061    0.148700354    0.050933902
 603   Q   :    0.255301802    0.089917514    0.067543611
 604   Q   :   -0.021542243   -0.238606756   -0.115328809
 605   Q   :    0.115300352   -0.145176501   -0.186510291
 606   Q   :   -0.288111678    0.015251826    0.074632502
 607   Q   :    0.168490749    0.132380559    0.123614827
 608   Q   :   -0.217569244   -0.121670519    0.088358151
 609   Q   :    0.141912596   -0.073255366   -0.222557593
 610   Q   :    0.078299964    0.195933201    0.134768094
 611   Q   :    0.255672071    0.135969518   -0.017636399
 612   Q   :   -0.200353653   -0.000115448   -0.189800106
 613   Q   :   -0.044893724   -0.127335119    0.203252068
 614   Q   :   -0.304391461    0.061330201   -0.115144377
 615   Q   :    0.077886756   -0.213150588    0.181317013
 616   Q   :    0.227605971    0.155383626   -0.062296383
 617   Q   :    0.006821889   -0.185933405   -0.141636447
 618   Q   :   -0.170818354    0.176298680    0.034394714
 619   Q   :    0.149359973    0.014442475    0.101860614
 620   Q   :   -0.245165491    0.098834518   -0.151260052
 621   Q   :    0.067542429    0.070321624    0.250493746
 622   Q   :    0.169010317   -0.174095482   -0.092559935
 623   Q   :   -0.107350452   -0.114050478   -0.225133344
 624   Q   :   -0.111758173    0.212691112    0.171591525
 625   Q   :    0.223268181   -0.095936309    0.045202747

Difference to translation invariance:
           :    0.0015863721   -0.0004779470   -0.0001264625

Difference to rotation invariance:
           :    0.0045007288    0.0418552874   -0.0419056825

Norm of the cartesian gradient     ...    6.1358303762
RMS gradient                       ...    0.1417009328
MAX gradient                       ...    0.3299521289

-------
TIMINGS
-------

Total SCF gradient time            ...      352.064 sec

One electron gradient       ....      37.752 sec  ( 10.7%)
RI-J Coulomb gradient       ....      17.747 sec  (  5.0%)
COSX gradient               ....     233.854 sec  ( 66.4%)
XC gradient                 ....      25.386 sec  (  7.2%)

Maximum memory used throughout the entire SCFGRAD-calculation: 1138.4 MB

                            ***************************************
                            *     ORCA property calculations      *
                            ***************************************

                                    ---------------------
                                    Active property flags
                                    ---------------------
   (+) Dipole Moment


------------------------------------------------------------------------------
                       ORCA ELECTRIC PROPERTIES CALCULATION
------------------------------------------------------------------------------

Dipole Moment Calculation                       ... on
Quadrupole Moment Calculation                   ... off
Polarizability Calculation                      ... off
GBWName                                         ... final007.orca.gbw
Electron density                                ... final007.orca.scfp
The origin for moment calculation is the CENTER OF MASS  = (21.241422, 20.573975 18.711951)

-------------
DIPOLE MOMENT
-------------
                                X             Y             Z
Electronic contribution:     -1.73179      -0.41542       0.07401
Nuclear contribution   :      5.09136       2.99032      11.79416
                        -----------------------------------------
Total Dipole Moment    :      3.35957       2.57490      11.86817
                        -----------------------------------------
Magnitude (a.u.)       :     12.60041
Magnitude (Debye)      :     32.02770



--------------------
Rotational spectrum 
--------------------
 
Rotational constants in cm-1:     0.001442     0.001285     0.001227 
Rotational constants in MHz :    43.233649    38.510308    36.799517 

 Dipole components along the rotational axes: 
x,y,z [a.u.] :     2.436513   -10.631583     6.308979 
x,y,z [Debye]:     6.193123   -27.023335    16.036151 

 

Timings for individual modules:

Sum of individual times         ...     1416.519 sec (=  23.609 min)
GTO integral calculation        ...       17.486 sec (=   0.291 min)   1.2 %
SCF iterations                  ...     1042.170 sec (=  17.369 min)  73.6 %
SCF Gradient evaluation         ...      356.863 sec (=   5.948 min)  25.2 %
                             ****ORCA TERMINATED NORMALLY****
TOTAL RUN TIME: 0 days 0 hours 23 minutes 46 seconds 413 msec
