
                                 *****************
                                 * O   R   C   A *
                                 *****************

                                            #,                                       
                                            ###                                      
                                            ####                                     
                                            #####                                    
                                            ######                                   
                                           ########,                                 
                                     ,,################,,,,,                         
                               ,,#################################,,                 
                          ,,##########################################,,             
                       ,#########################################, ''#####,          
                    ,#############################################,,   '####,        
                  ,##################################################,,,,####,       
                ,###########''''           ''''###############################       
              ,#####''   ,,,,##########,,,,          '''####'''          '####       
            ,##' ,,,,###########################,,,                        '##       
           ' ,,###''''                  '''############,,,                           
         ,,##''                                '''############,,,,        ,,,,,,###''
      ,#''                                            '''#######################'''  
     '                                                          ''''####''''         
             ,#######,   #######,   ,#######,      ##                                
            ,#'     '#,  ##    ##  ,#'     '#,    #''#        ######   ,####,        
            ##       ##  ##   ,#'  ##            #'  '#       #        #'  '#        
            ##       ##  #######   ##           ,######,      #####,   #    #        
            '#,     ,#'  ##    ##  '#,     ,#' ,#      #,         ##   #,  ,#        
             '#######'   ##     ##  '#######'  #'      '#     #####' # '####'        



                  #######################################################
                  #                        -***-                        #
                  #          Department of theory and spectroscopy      #
                  #    Directorship and core code : Frank Neese         #
                  #        Max Planck Institute fuer Kohlenforschung    #
                  #                Kaiser Wilhelm Platz 1               #
                  #                 D-45470 Muelheim/Ruhr               #
                  #                      Germany                        #
                  #                                                     #
                  #                  All rights reserved                #
                  #                        -***-                        #
                  #######################################################


                         Program Version 5.0.3 -  RELEASE  -


 With contributions from (in alphabetic order):
   Daniel Aravena         : Magnetic Suceptibility
   Michael Atanasov       : Ab Initio Ligand Field Theory (pilot matlab implementation)
   Alexander A. Auer      : GIAO ZORA, VPT2 properties, NMR spectrum
   Ute Becker             : Parallelization
   Giovanni Bistoni       : ED, misc. LED, open-shell LED, HFLD
   Martin Brehm           : Molecular dynamics
   Dmytro Bykov           : SCF Hessian
   Vijay G. Chilkuri      : MRCI spin determinant printing, contributions to CSF-ICE
   Dipayan Datta          : RHF DLPNO-CCSD density
   Achintya Kumar Dutta   : EOM-CC, STEOM-CC
   Dmitry Ganyushin       : Spin-Orbit,Spin-Spin,Magnetic field MRCI
   Miquel Garcia          : C-PCM and meta-GGA Hessian, CC/C-PCM, Gaussian charge scheme
   Yang Guo               : DLPNO-NEVPT2, F12-NEVPT2, CIM, IAO-localization
   Andreas Hansen         : Spin unrestricted coupled pair/coupled cluster methods
   Benjamin Helmich-Paris : MC-RPA, TRAH-SCF, COSX integrals
   Lee Huntington         : MR-EOM, pCC
   Robert Izsak           : Overlap fitted RIJCOSX, COSX-SCS-MP3, EOM
   Marcus Kettner         : VPT2
   Christian Kollmar      : KDIIS, OOCD, Brueckner-CCSD(T), CCSD density, CASPT2, CASPT2-K
   Simone Kossmann        : Meta GGA functionals, TD-DFT gradient, OOMP2, MP2 Hessian
   Martin Krupicka        : Initial AUTO-CI
   Lucas Lang             : DCDCAS
   Marvin Lechner         : AUTO-CI (C++ implementation), FIC-MRCC
   Dagmar Lenk            : GEPOL surface, SMD
   Dimitrios Liakos       : Extrapolation schemes; Compound Job, initial MDCI parallelization
   Dimitrios Manganas     : Further ROCIS development; embedding schemes
   Dimitrios Pantazis     : SARC Basis sets
   Anastasios Papadopoulos: AUTO-CI, single reference methods and gradients
   Taras Petrenko         : DFT Hessian,TD-DFT gradient, ASA, ECA, R-Raman, ABS, FL, XAS/XES, NRVS
   Peter Pinski           : DLPNO-MP2, DLPNO-MP2 Gradient
   Christoph Reimann      : Effective Core Potentials
   Marius Retegan         : Local ZFS, SOC
   Christoph Riplinger    : Optimizer, TS searches, QM/MM, DLPNO-CCSD(T), (RO)-DLPNO pert. Triples
   Tobias Risthaus        : Range-separated hybrids, TD-DFT gradient, RPA, STAB
   Michael Roemelt        : Original ROCIS implementation
   Masaaki Saitow         : Open-shell DLPNO-CCSD energy and density
   Barbara Sandhoefer     : DKH picture change effects
   Avijit Sen             : IP-ROCIS
   Kantharuban Sivalingam : CASSCF convergence, NEVPT2, FIC-MRCI
   Bernardo de Souza      : ESD, SOC TD-DFT
   Georgi Stoychev        : AutoAux, RI-MP2 NMR, DLPNO-MP2 response
   Willem Van den Heuvel  : Paramagnetic NMR
   Boris Wezisla          : Elementary symmetry handling
   Frank Wennmohs         : Technical directorship


 We gratefully acknowledge several colleagues who have allowed us to
 interface, adapt or use parts of their codes:
   Stefan Grimme, W. Hujo, H. Kruse, P. Pracht,  : VdW corrections, initial TS optimization,
                  C. Bannwarth, S. Ehlert          DFT functionals, gCP, sTDA/sTD-DF
   Ed Valeev, F. Pavosevic, A. Kumar             : LibInt (2-el integral package), F12 methods
   Garnet Chan, S. Sharma, J. Yang, R. Olivares  : DMRG
   Ulf Ekstrom                                   : XCFun DFT Library
   Mihaly Kallay                                 : mrcc  (arbitrary order and MRCC methods)
   Jiri Pittner, Ondrej Demel                    : Mk-CCSD
   Frank Weinhold                                : gennbo (NPA and NBO analysis)
   Christopher J. Cramer and Donald G. Truhlar   : smd solvation model
   Lars Goerigk                                  : TD-DFT with DH, B97 family of functionals
   V. Asgeirsson, H. Jonsson                     : NEB implementation
   FAccTs GmbH                                   : IRC, NEB, NEB-TS, DLPNO-Multilevel, CI-OPT
                                                   MM, QMMM, 2- and 3-layer-ONIOM, Crystal-QMMM,
                                                   LR-CPCM, SF, NACMEs, symmetry and pop. for TD-DFT,
                                                   nearIR, NL-DFT gradient (VV10), updates on ESD,
                                                   ML-optimized integration grids
   S Lehtola, MJT Oliveira, MAL Marques          : LibXC Library
   Liviu Ungur et al                             : ANISO software


 Your calculation uses the libint2 library for the computation of 2-el integrals
 For citations please refer to: http://libint.valeyev.net

 Your ORCA version has been built with support for libXC version: 5.1.0
 For citations please refer to: https://tddft.org/programs/libxc/

 This ORCA versions uses:
   CBLAS   interface :  Fast vector & matrix operations
   LAPACKE interface :  Fast linear algebra routines
   SCALAPACK package :  Parallel linear algebra routines
   Shared memory     :  Shared parallel matrices
   BLAS/LAPACK       :  OpenBLAS 0.3.15  USE64BITINT DYNAMIC_ARCH NO_AFFINITY SkylakeX SINGLE_THREADED
        Core in use  :  SkylakeX
   Copyright (c) 2011-2014, The OpenBLAS Project


================================================================================

----- Orbital basis set information -----
Your calculation utilizes the basis: def2-SVP
   F. Weigend and R. Ahlrichs, Phys. Chem. Chem. Phys. 7, 3297 (2005).

The basis set includes element-specific modifications.

Your calculation utilizes the basis: aug-cc-pVTZ 
    H, B-Ne : Obtained from the ccRepo (grant-hill.group.shef.ac.uk/ccrepo) Feb. 2017
              R. A. Kendall, T. H. Dunning, Jr., R. J. Harrison, J. Chem. Phys. 96, 6796 (1992)
         He : Obtained from the ccRepo (grant-hill.group.shef.ac.uk/ccrepo) Feb. 2017
              D. E. Woon, T. H. Dunning, Jr., J. Chem. Phys. 100, 2975 (1994)
  Li-Be, Na : Obtained from the ccRepo (grant-hill.group.shef.ac.uk/ccrepo) Feb. 2017
              B. P. Prascher, D. E. Woon, K. A. Peterson, T. H. Dunning, Jr., A. K. Wilson, Theor. Chem. Acc. 128, 69 (2011)
         Mg : Obtained from the Peterson Research Group Website (tyr0.chem.wsu.edu/~kipeters) Feb. 2017
              B. P. Prascher, D. E. Woon, K. A. Peterson, T. H. Dunning, Jr., A. K. Wilson, Theor. Chem. Acc. 128, 69 (2011)
      Al-Ar : Obtained from the ccRepo (grant-hill.group.shef.ac.uk/ccrepo) Feb. 2017
              D. E. Woon, T. H. Dunning, Jr., J. Chem. Phys. 98, 1358 (1993)
      Sc-Zn : Obtained from the ccRepo (grant-hill.group.shef.ac.uk/ccrepo) Feb. 2017
              N. B. Balabanov, K. A. Peterson, J. Chem. Phys. 123, 064107 (2005)
              N. B. Balabanov, K. A. Peterson, J. Chem. Phys. 125, 074110 (2006)
      Ga-Kr : Obtained from the ccRepo (grant-hill.group.shef.ac.uk/ccrepo) Feb. 2017
              A. K. Wilson, D. E. Woon, K. A. Peterson, T. H. Dunning, Jr., J. Chem. Phys. 110, 7667 (1999)
     Ag, Au : Obtained from the Peterson Research Group Website (tyr0.chem.wsu.edu/~kipeters) Feb. 2017
              K. A. Peterson, C. Puzzarini, Theor. Chem. Acc. 114, 283 (2005)

Your calculation utilizes the basis: cc-pVTZ 
       H, B-Ne : Obtained from the ccRepo (grant-hill.group.shef.ac.uk/ccrepo) Feb. 2017
                 T. H. Dunning, Jr., J. Chem. Phys. 90, 1007 (1989)
            He : Obtained from the ccRepo (grant-hill.group.shef.ac.uk/ccrepo) Feb. 2017
                 D. E. Woon, T. H. Dunning, Jr., J. Chem. Phys. 100, 2975 (1994)
  Li-Be, Na-Mg : Obtained from the ccRepo (grant-hill.group.shef.ac.uk/ccrepo) Feb. 2017
                 B. P. Prascher, D. E. Woon, K. A. Peterson, T. H. Dunning, Jr., A. K. Wilson, Theor. Chem. Acc. 128, 69 (2011)
         Al-Ar : Obtained from the ccRepo (grant-hill.group.shef.ac.uk/ccrepo) Feb. 2017
                 D. E. Woon, T. H. Dunning, Jr., J. Chem. Phys. 98, 1358 (1993)
            Ca : Obtained from the Peterson Research Group Website (tyr0.chem.wsu.edu/~kipeters) Feb. 2017
                 J. Koput, K. A. Peterson, J. Phys. Chem. 106, 9595 (2002)
         Sc-Zn : Obtained from the ccRepo (grant-hill.group.shef.ac.uk/ccrepo) Feb. 2017
                 N. B. Balabanov, K. A. Peterson, J. Chem. Phys. 123, 064107 (2005)
                 N. B. Balabanov, K. A. Peterson, J. Chem. Phys. 125, 074110 (2006)
         Ga-Kr : Obtained from the ccRepo (grant-hill.group.shef.ac.uk/ccrepo) Feb. 2017
                 A. K. Wilson, D. E. Woon, K. A. Peterson, T. H. Dunning, Jr., J. Chem. Phys. 110, 7667 (1999)
             Y : Obtained from the ccRepo (grant-hill.group.shef.ac.uk/ccrepo) Feb. 2017
                 K. A. Peterson, D. Figgen, M. Dolg, H. Stoll, J. Chem. Phys. 126, 124101 (2007)
        Ag, Au : Obtained from the Peterson Research Group Website (tyr0.chem.wsu.edu/~kipeters) Feb. 2017
                 K. A. Peterson, C. Puzzarini, Theor. Chem. Acc. 114, 283 (2005)

----- AuxJ basis set information -----
Your calculation utilizes the auxiliary basis: def2/J
   F. Weigend, Phys. Chem. Chem. Phys. 8, 1057 (2006).

================================================================================
                                        WARNINGS
                       Please study these warnings very carefully!
================================================================================

WARNING: The globally-selected AuxJ basis set is optimized for use with ECPs
         Make sure a suitable alternative is explicitly given all heavy elements (Z>36)

INFO   : the flag for use of the SHARK integral package has been found!

================================================================================
                                       INPUT FILE
================================================================================
NAME = final005.orca.inp
|  1> ! NoMOPrint PrintBasis #MINIPRINT SMALLPRINT LARGEPRINT
|  2> ! ALLPOP XYZFILE
|  3> #! BP86 3-21G   TightSCF
|  4> ! ENGRAD
|  5> ! B3LYP NormalPNO PModel #DecontractAux
|  6> #! VerySlowConv 
|  7>  %maxcore 5000
|  8>  %scf  maxiter   500  end 
|  9> 
| 10> %pal
| 11>     nprocs 32
| 12> end
| 13> 
| 14> %basis
| 15>     NewGTO O    # New basis for oxygen
| 16>         "aug-cc-pVTZ"
| 17>     end
| 18>     NewGTO C    # New basis for carbon
| 19>         "aug-cc-pVTZ"
| 20>     end
| 21>     NewGTO H    # New basis for hydrogen
| 22>         "cc-pVTZ"
| 23>     end
| 24> end
| 25> 
| 26> * xyz 0   1
| 27>   C  12.41  11.02  11.87  #1
| 28>   H  13.04  10.18  12.32  #2
| 29>   H  11.57  11.09  12.57  #3
| 30>   C  12.03  10.84  10.43  #4
| 31>   H  11.7  11.78  9.89  #5
| 32>   H  12.96  10.45  9.9  #6
| 33>   C  10.92  9.78  10.27  #7
| 34>   H  11.32  8.78  10.25  #8
| 35>   H  10.43  9.85  9.23  #9
| 36>   C  9.76  9.75  11.3  #10
| 37>   H  10.18  9.38  12.31  #11
| 38>   H  8.98  9.12  10.94  #12
| 39>   O  9.19  11.08  11.4  #13
| 40>   H  8.55  11.05  12.14  #14
| 41>   O  13.24  12.23  12.02  #15
| 42>   H  12.69  13.02  11.76  #16
| 43>   O  6.98  11.1  13.95  #17
| 44>   H  6.79  11.79  13.27  #18
| 45>   H  6.28  10.47  14.1  #19
| 46>   O  11.16  6.93  8.53  #20
| 47>   H  11.69  7.63  8.05  #21
| 48>   H  11.17  6.15  7.96  #22
| 49>   O  13.42  12.19  15.1  #23
| 50>   H  13.36  12.57  14.23  #24
| 51>   H  12.69  11.55  15.22  #25
| 52>   O  11.57  9.99  15.35  #26
| 53>   H  10.75  10.5  15.46  #27
| 54>   H  11.25  9.28  14.78  #28
| 55>   O  7.18  13.88  12.83  #29
| 56>   H  8.14  13.9  12.81  #30
| 57>   H  6.91  13.92  11.92  #31
| 58>   O  15.84  11.18  12.18  #32
| 59>   H  14.92  11.46  12.2  #33
| 60>   H  16.29  12.07  12.13  #34
| 61>   O  9.57  13.76  14.08  #35
| 62>   H  9.33  13.74  14.98  #36
| 63>   H  10.25  14.42  14.23  #37
| 64>   O  12.88  8.9  7.87  #38
| 65>   H  13.57  8.33  7.63  #39
| 66>   H  12.93  9.7  7.35  #40
| 67>   O  12.64  5.54  10.33  #41
| 68>   H  12.45  6.2  9.65  #42
| 69>   H  13.18  5.9  11.04  #43
| 70>   O  13.86  14.15  17.26  #44
| 71>   H  14.47  13.65  17.87  #45
| 72>   H  13.65  13.6  16.48  #46
| 73>   O  8.31  5.24  8.06  #47
| 74>   H  7.99  4.4  7.8  #48
| 75>   H  9.27  5.05  8.1  #49
| 76>   O  13.52  9.92  17.32  #50
| 77>   H  12.86  9.68  16.65  #51
| 78>   H  13.06  9.79  18.19  #52
| 79>   O  11.29  7.08  14.97  #53
| 80>   H  10.74  6.89  15.74  #54
| 81>   H  10.8  6.54  14.33  #55
| 82>   O  8.72  11.13  16.03  #56
| 83>   H  8.69  10.35  16.6  #57
| 84>   H  8.05  11.23  15.37  #58
| 85>   O  11.08  4.74  7.24  #59
| 86>   H  11.39  3.88  7.55  #60
| 87>   H  11.29  4.81  6.29  #61
| 88>   O  11.49  13.6  7.58  #62
| 89>   H  11.82  14.46  7.88  #63
| 90>   H  10.81  13.39  8.27  #64
| 91>   O  12.74  14.94  11.71  #65
| 92>   H  13.47  14.8  11.11  #66
| 93>   H  13.18  15.08  12.56  #67
| 94>   O  10.31  15.24  10.24  #68
| 95>   H  11.23  14.91  10.47  #69
| 96>   H  9.73  14.49  10.04  #70
| 97>   O  6.37  14.95  10.2  #71
| 98>   H  5.92  15.22  9.38  #72
| 99>   H  6.22  15.63  10.83  #73
|100>   O  4.65  11.97  16.3  #74
|101>   H  4.55  11.9  17.25  #75
|102>   H  4.97  11.12  15.99  #76
|103>   O  5.45  9.21  15.52  #77
|104>   H  5.81  8.78  16.29  #78
|105>   H  4.67  8.69  15.33  #79
|106>   O  16.07  10.86  15.22  #80
|107>   H  16  10.94  14.28  #81
|108>   H  15.24  11.3  15.41  #82
|109>   O  6.39  8.83  9.39  #83
|110>   H  5.59  9.3  9.08  #84
|111>   H  6.12  8.56  10.32  #85
|112>   O  9.36  6.2  10.76  #86
|113>   H  9.87  6.69  10.14  #87
|114>   H  8.87  5.63  10.17  #88
|115>   O  8.65  8.74  7.67  #89
|116>   H  9.3  8.14  7.97  #90
|117>   H  7.89  8.63  8.27  #91
|118>   O  9.32  12.85  9.45  #92
|119>   H  8.52  12.54  9.02  #93
|120>   H  9.39  12.16  10.11  #94
|121>   O  5.9  14.21  15.16  #95
|122>   H  5.38  13.48  15.49  #96
|123>   H  6.48  13.84  14.42  #97
|124>   Q  0.6645  11.31$  12.94$  2.35$
|125>   Q  0.6645  11.57$  13.4$  3.76$
|126>   Q  -1.3290  11.79$  13.14$  3.01$
|127>   Q  0.6645  15.02$  14.6$  14.44$
|128>   Q  0.6645  14.75$  16.12$  14.14$
|129>   Q  -1.3290  14.55$  15.3$  14.25$
|130>   Q  0.6645  6.97$  17.35$  14.69$
|131>   Q  0.6645  8.06$  17.17$  13.58$
|132>   Q  -1.3290  7.76$  17.44$  14.33$
|133>   Q  0.6645  15.64$  2.93$  8.62$
|134>   Q  0.6645  16.85$  2.35$  7.98$
|135>   Q  -1.3290  16.21$  2.36$  8.56$
|136>   Q  0.6645  13.44$  10.73$  1.89$
|137>   Q  0.6645  12.64$  10.35$  3.21$
|138>   Q  -1.3290  13.06$  10.19$  2.49$
|139>   Q  0.6645  2.68$  16.09$  7.3$
|140>   Q  0.6645  1.89$  15.04$  8.08$
|141>   Q  -1.3290  2.18$  15.81$  7.92$
|142>   Q  0.6645  12.64$  15.35$  15.03$
|143>   Q  0.6645  11.59$  16.22$  15.79$
|144>   Q  -1.3290  11.86$  15.64$  15.23$
|145>   Q  0.6645  16.49$  8.54$  18.22$
|146>   Q  0.6645  15.07$  8.85$  17.73$
|147>   Q  -1.3290  15.74$  8.38$  17.84$
|148>   Q  0.6645  9.68$  2.75$  5.98$
|149>   Q  0.6645  10.91$  2.35$  5.18$
|150>   Q  -1.3290  10.37$  2.33$  5.85$
|151>   Q  0.6645  14.02$  5.73$  15.57$
|152>   Q  0.6645  12.81$  6.38$  14.79$
|153>   Q  -1.3290  13.43$  5.8$  14.94$
|154>   Q  0.6645  3.41$  9.67$  8.13$
|155>   Q  0.6645  4.28$  9.85$  6.85$
|156>   Q  -1.3290  4.14$  9.67$  7.67$
|157>   Q  0.6645  11.73$  1.57$  7.52$
|158>   Q  0.6645  13.09$  1.24$  8.18$
|159>   Q  -1.3290  12.33$  1.6$  8.13$
|160>   Q  0.6645  8.47$  12.21$  19.99$
|161>   Q  0.6645  9.15$  11.52$  21.08$
|162>   Q  -1.3290  8.57$  11.57$  20.5$
|163>   Q  0.6645  15.7$  6.35$  17.6$
|164>   Q  0.6645  15.96$  4.78$  17.15$
|165>   Q  -1.3290  15.52$  5.51$  17.42$
|166>   Q  0.6645  12.89$  2.42$  14.91$
|167>   Q  0.6645  12.74$  3.99$  14.98$
|168>   Q  -1.3290  12.52$  3.16$  15.14$
|169>   Q  0.6645  4.43$  12.9$  10.9$
|170>   Q  0.6645  5.79$  12.37$  10.14$
|171>   Q  -1.3290  4.93$  12.38$  10.42$
|172>   Q  0.6645  17.79$  14.43$  18.26$
|173>   Q  0.6645  18.66$  14.97$  17.13$
|174>   Q  -1.3290  17.98$  14.61$  17.45$
|175>   Q  0.6645  1.33$  10.24$  16.52$
|176>   Q  0.6645  0.34$  9.5$  15.63$
|177>   Q  -1.3290  0.92$  10.07$  15.79$
|178>   Q  0.6645  4.57$  15.27$  17.44$
|179>   Q  0.6645  5.98$  15$  17.02$
|180>   Q  -1.3290  5.41$  15.23$  17.57$
|181>   Q  0.6645  17.05$  9.68$  6.62$
|182>   Q  0.6645  17.58$  8.67$  7.57$
|183>   Q  -1.3290  17$  9.19$  7.24$
|184>   Q  0.6645  14.6$  17.43$  17.49$
|185>   Q  0.6645  14.45$  15.88$  17.61$
|186>   Q  -1.3290  14.81$  16.65$  17.73$
|187>   Q  0.6645  4.89$  16.35$  14.93$
|188>   Q  0.6645  4.43$  17.92$  15.07$
|189>   Q  -1.3290  4.97$  17.23$  14.94$
|190>   Q  0.6645  9.68$  5.84$  12.38$
|191>   Q  0.6645  9.47$  4.69$  13.53$
|192>   Q  -1.3290  9.61$  5.5$  13.18$
|193>   Q  0.6645  2.27$  8.55$  3.77$
|194>   Q  0.6645  2.58$  7.77$  5.1$
|195>   Q  -1.3290  2.06$  8.14$  4.53$
|196>   Q  0.6645  9.41$  5.3$  4.72$
|197>   Q  0.6645  10.19$  6.02$  3.76$
|198>   Q  -1.3290  10.07$  5.38$  4.27$
|199>   Q  0.6645  15.63$  5.12$  12.41$
|200>   Q  0.6645  16.73$  4.81$  11.45$
|201>   Q  -1.3290  16.24$  4.62$  12.08$
|202>   Q  0.6645  11.44$  2.85$  2.63$
|203>   Q  0.6645  10.92$  3.81$  3.56$
|204>   Q  -1.3290  11.42$  3.16$  3.37$
|205>   Q  0.6645  17.87$  4.52$  9.58$
|206>   Q  0.6645  16.44$  5.09$  9.59$
|207>   Q  -1.3290  17.24$  5.05$  9.8$
|208>   Q  0.6645  9.33$  8.98$  18.9$
|209>   Q  0.6645  8.58$  10.19$  19.26$
|210>   Q  -1.3290  8.88$  9.63$  18.72$
|211>   Q  0.6645  -0.06$  10.42$  12.13$
|212>   Q  0.6645  1.43$  9.79$  12.18$
|213>   Q  -1.3290  0.71$  10.16$  11.84$
|214>   Q  0.6645  7.46$  2.29$  6.39$
|215>   Q  0.6645  7.24$  3.3$  5.41$
|216>   Q  -1.3290  7.61$  3.01$  6.07$
|217>   Q  0.6645  8.28$  16.35$  15.83$
|218>   Q  0.6645  8.45$  15.48$  17.18$
|219>   Q  -1.3290  8.25$  16.16$  16.67$
|220>   Q  0.6645  20.67$  10.24$  8.73$
|221>   Q  0.6645  21.17$  10.59$  7.35$
|222>   Q  -1.3290  21.06$  10.72$  8.16$
|223>   Q  0.6645  4.24$  10.81$  11.39$
|224>   Q  0.6645  3.33$  10.8$  12.76$
|225>   Q  -1.3290  3.72$  10.51$  12.01$
|226>   Q  0.6645  14.48$  18.75$  9.94$
|227>   Q  0.6645  15.05$  19.87$  10.66$
|228>   Q  -1.3290  15.06$  19.1$  10.4$
|229>   Q  0.6645  11.61$  20.68$  8.02$
|230>   Q  0.6645  10.8$  20.67$  9.22$
|231>   Q  -1.3290  10.91$  20.6$  8.4$
|232>   Q  0.6645  15.17$  2.95$  11.77$
|233>   Q  0.6645  13.71$  2.75$  11.52$
|234>   Q  -1.3290  14.45$  2.52$  11.75$
|235>   Q  0.6645  17.79$  5$  13.29$
|236>   Q  0.6645  19.01$  4.6$  14.32$
|237>   Q  -1.3290  18.34$  5.05$  14$
|238>   Q  0.6645  7.92$  2.33$  17.12$
|239>   Q  0.6645  9.4$  2.69$  17.32$
|240>   Q  -1.3290  8.73$  2.46$  16.89$
|241>   Q  0.6645  7.13$  8.93$  18.19$
|242>   Q  0.6645  6.39$  8.04$  18.98$
|243>   Q  -1.3290  6.51$  8.45$  18.28$
|244>   Q  0.6645  12.42$  12.29$  7$
|245>   Q  0.6645  13.87$  11.86$  6.8$
|246>   Q  -1.3290  13.05$  11.75$  6.67$
|247>   Q  0.6645  13.61$  16.2$  7.26$
|248>   Q  0.6645  12.21$  16.7$  6.83$
|249>   Q  -1.3290  12.77$  16.38$  7.37$
|250>   Q  0.6645  3.59$  13.01$  19.43$
|251>   Q  0.6645  3.88$  11.68$  20.12$
|252>   Q  -1.3290  3.85$  12.22$  19.47$
|253>   Q  0.6645  6.97$  0.67$  13.91$
|254>   Q  0.6645  7.81$  1.63$  13.16$
|255>   Q  -1.3290  7.11$  1.31$  13.41$
|256>   Q  0.6645  17.37$  11.43$  16.08$
|257>   Q  0.6645  17.72$  12.85$  16.8$
|258>   Q  -1.3290  17.7$  11.98$  16.65$
|259>   Q  0.6645  7.16$  4.73$  16.52$
|260>   Q  0.6645  6.67$  4.75$  18.01$
|261>   Q  -1.3290  7.24$  4.83$  17.35$
|262>   Q  0.6645  6.43$  14.52$  19.23$
|263>   Q  0.6645  7.43$  14.32$  20.4$
|264>   Q  -1.3290  7.02$  14.1$  19.68$
|265>   Q  0.6645  19.63$  10.34$  13.13$
|266>   Q  0.6645  19.82$  11.29$  11.85$
|267>   Q  -1.3290  19.99$  10.94$  12.64$
|268>   Q  0.6645  19.87$  7$  6.85$
|269>   Q  0.6645  19.36$  8.12$  6.09$
|270>   Q  -1.3290  19.36$  7.64$  6.75$
|271>   Q  0.6645  10.4$  10.95$  4.17$
|272>   Q  0.6645  11.64$  10.81$  5.27$
|273>   Q  -1.3290  11.1$  10.59$  4.62$
|274>   Q  0.6645  4.1$  6.35$  6.3$
|275>   Q  0.6645  4.54$  7.66$  7$
|276>   Q  -1.3290  4.26$  7.18$  6.33$
|277>   Q  0.6645  8.74$  13.64$  5.32$
|278>   Q  0.6645  10.16$  13.43$  6.08$
|279>   Q  -1.3290  9.6$  13.59$  5.42$
|280>   Q  0.6645  10.3$  2.77$  13.45$
|281>   Q  0.6645  9.53$  2.71$  14.79$
|282>   Q  -1.3290  9.6$  2.77$  13.94$
|283>   Q  0.6645  16.43$  21.71$  13.33$
|284>   Q  0.6645  16.5$  20.27$  13.84$
|285>   Q  -1.3290  16.63$  20.91$  13.3$
|286>   Q  0.6645  11.97$  9.55$  1.13$
|287>   Q  0.6645  11.69$  9.75$  -0.44$
|288>   Q  -1.3290  11.49$  9.64$  0.41$
|289>   Q  0.6645  5.25$  11.14$  4.64$
|290>   Q  0.6645  4.94$  12.26$  5.89$
|291>   Q  -1.3290  4.85$  11.83$  5.09$
|292>   Q  0.6645  10.67$  16.76$  5.4$
|293>   Q  0.6645  10.04$  15.51$  4.85$
|294>   Q  -1.3290  10.51$  16.2$  4.78$
|295>   Q  0.6645  11.58$  6.22$  0.74$
|296>   Q  0.6645  11.1$  7.72$  0.84$
|297>   Q  -1.3290  11.02$  6.88$  0.69$
|298>   Q  0.6645  1.11$  12.07$  10.67$
|299>   Q  0.6645  1.83$  13.56$  10.63$
|300>   Q  -1.3290  1.18$  12.95$  10.49$
|301>   Q  0.6645  11.63$  2.71$  17$
|302>   Q  0.6645  11.44$  1.87$  18.2$
|303>   Q  -1.3290  11.46$  2.6$  17.85$
|304>   Q  0.6645  12.97$  18.41$  11.29$
|305>   Q  0.6645  11.58$  17.95$  12.06$
|306>   Q  -1.3290  12.28$  18.45$  11.86$
|307>   Q  0.6645  12.58$  19.19$  16.97$
|308>   Q  0.6645  12.95$  18.81$  18.39$
|309>   Q  -1.3290  13.1$  19.15$  17.63$
|310>   Q  0.6645  4.77$  6.15$  3.38$
|311>   Q  0.6645  3.3$  5.95$  2.83$
|312>   Q  -1.3290  4.08$  6.35$  2.92$
|313>   Q  0.6645  8.81$  6.7$  0.86$
|314>   Q  0.6645  7.5$  7.12$  1.48$
|315>   Q  -1.3290  7.99$  6.75$  0.92$
|316>   Q  0.6645  17.46$  18.79$  5.82$
|317>   Q  0.6645  17.93$  17.6$  6.43$
|318>   Q  -1.3290  17.8$  18.08$  5.8$
|319>   Q  0.6645  13.32$  19.3$  5.93$
|320>   Q  0.6645  13.09$  20.77$  6.18$
|321>   Q  -1.3290  12.93$  19.96$  6.27$
|322>   Q  0.6645  12.91$  21.39$  10.87$
|323>   Q  0.6645  14.07$  22.43$  11.18$
|324>   Q  -1.3290  13.72$  21.67$  10.93$
|325>   Q  0.6645  16.71$  10.64$  8.79$
|326>   Q  0.6645  16.04$  11.11$  10.12$
|327>   Q  -1.3290  16.49$  11.18$  9.39$
|328>   Q  0.6645  16.26$  11.97$  18.1$
|329>   Q  0.6645  14.79$  11.49$  17.78$
|330>   Q  -1.3290  15.44$  11.8$  18.24$
|331>   Q  0.6645  5.84$  17.67$  16.83$
|332>   Q  0.6645  6.38$  19.15$  17.36$
|333>   Q  -1.3290  5.83$  18.44$  17.3$
|334>   Q  0.6645  13.02$  3.61$  18.88$
|335>   Q  0.6645  14.23$  4.46$  18.61$
|336>   Q  -1.3290  13.7$  4.04$  19.11$
|337>   Q  0.6645  3.63$  5.24$  12.88$
|338>   Q  0.6645  2.78$  5.25$  11.41$
|339>   Q  -1.3290  3.35$  5.48$  12.05$
|340>   Q  0.6645  15.16$  6.85$  5.63$
|341>   Q  0.6645  15.68$  7.25$  4.16$
|342>   Q  -1.3290  15.42$  6.69$  4.79$
|343>   Q  0.6645  11.01$  16.38$  13.28$
|344>   Q  0.6645  10.41$  16.02$  11.93$
|345>   Q  -1.3290  10.5$  16.51$  12.61$
|346>   Q  0.6645  18.27$  12.19$  10.18$
|347>   Q  0.6645  19.34$  13.19$  10.31$
|348>   Q  -1.3290  18.98$  12.45$  10.48$
|349>   Q  0.6645  1.96$  10.24$  9.91$
|350>   Q  0.6645  1.14$  10.18$  8.68$
|351>   Q  -1.3290  1.83$  10.23$  9.09$
|352>   Q  0.6645  8.8$  13.54$  1.27$
|353>   Q  0.6645  7.31$  13.75$  1.32$
|354>   Q  -1.3290  8.08$  13.81$  1.62$
|355>   Q  0.6645  15.4$  17.56$  12.16$
|356>   Q  0.6645  15.44$  18.3$  13.46$
|357>   Q  -1.3290  15.47$  17.6$  12.99$
|358>   Q  0.6645  4.55$  8.72$  12.11$
|359>   Q  0.6645  4.28$  7.17$  11.91$
|360>   Q  -1.3290  4.79$  7.92$  11.98$
|361>   Q  0.6645  16.04$  18.56$  15.83$
|362>   Q  0.6645  14.8$  19.4$  15.09$
|363>   Q  -1.3290  15.62$  19.21$  15.4$
|364>   Q  0.6645  19.61$  12.97$  13.67$
|365>   Q  0.6645  19.69$  13.14$  15.12$
|366>   Q  -1.3290  19.48$  13.38$  14.36$
|367>   Q  0.6645  15.57$  7.98$  7.57$
|368>   Q  0.6645  15.03$  6.46$  7.87$
|369>   Q  -1.3290  15.04$  7.26$  7.51$
|370>   Q  0.6645  17.68$  18.45$  17.24$
|371>   Q  0.6645  16.9$  17.09$  17.46$
|372>   Q  -1.3290  17.36$  17.68$  17.03$
|373>   Q  0.6645  11.77$  2.42$  10.18$
|374>   Q  0.6645  11.75$  3.89$  10.67$
|375>   Q  -1.3290  11.6$  3.07$  10.67$
|376>   Q  0.6645  3.33$  0.77$  8.19$
|377>   Q  0.6645  4.1$  2.16$  8.28$
|378>   Q  -1.3290  3.82$  1.44$  7.89$
|379>   Q  0.6645  15.47$  14.82$  1.86$
|380>   Q  0.6645  14.98$  13.38$  1.43$
|381>   Q  -1.3290  15.43$  13.99$  1.9$
|382>   Q  0.6645  15.28$  18.42$  4.88$
|383>   Q  0.6645  14.87$  17.32$  5.68$
|384>   Q  -1.3290  14.72$  17.97$  5.24$
|385>   Q  0.6645  10.49$  20.54$  15.47$
|386>   Q  0.6645  11.78$  20.29$  14.66$
|387>   Q  -1.3290  11.06$  20.08$  15.09$
|388>   Q  0.6645  13.67$  2.7$  6.47$
|389>   Q  0.6645  15.1$  3.01$  5.99$
|390>   Q  -1.3290  14.34$  3.19$  6.36$
|391>   Q  0.6645  6.45$  4.81$  14.21$
|392>   Q  0.6645  7.06$  3.42$  14.55$
|393>   Q  -1.3290  6.62$  4.12$  14.7$
|394>   Q  0.6645  17.46$  13.94$  14.61$
|395>   Q  0.6645  16.64$  14.71$  15.8$
|396>   Q  -1.3290  16.77$  14.26$  15.05$
|397>   Q  0.6645  13.38$  3.96$  3.63$
|398>   Q  0.6645  14.51$  4.8$  4.17$
|399>   Q  -1.3290  14.2$  4.18$  3.69$
|400>   Q  0.6645  21.19$  6.53$  11.52$
|401>   Q  0.6645  20.58$  6.33$  12.81$
|402>   Q  -1.3290  21.15$  6.2$  12.26$
|403>   Q  0.6645  6.77$  14.95$  3.99$
|404>   Q  0.6645  5.93$  13.96$  4.81$
|405>   Q  -1.3290  6.58$  14.47$  4.65$
|406>   Q  0.6645  13.6$  17.73$  3.75$
|407>   Q  0.6645  12.13$  17.28$  3.5$
|408>   Q  -1.3290  12.85$  17.64$  3.32$
|409>   Q  0.6645  2.08$  6.97$  7.25$
|410>   Q  0.6645  1.64$  5.99$  8.32$
|411>   Q  -1.3290  1.59$  6.71$  7.85$
|412>   Q  0.6645  18.04$  6.73$  10.33$
|413>   Q  0.6645  19.26$  7.73$  10.31$
|414>   Q  -1.3290  18.51$  7.4$  10.59$
|415>   Q  0.6645  20.32$  7.91$  14.45$
|416>   Q  0.6645  21.06$  7.49$  15.8$
|417>   Q  -1.3290  20.97$  7.77$  14.99$
|418>   Q  0.6645  19.47$  16.41$  13.48$
|419>   Q  0.6645  20.14$  15.06$  13.77$
|420>   Q  -1.3290  20.04$  15.79$  13.34$
|421>   Q  0.6645  6.66$  8.99$  2.94$
|422>   Q  0.6645  6.92$  9.26$  1.41$
|423>   Q  -1.3290  7.16$  9.09$  2.24$
|424>   Q  0.6645  7.06$  11.67$  7.37$
|425>   Q  0.6645  6.18$  12.75$  8.1$
|426>   Q  -1.3290  6.8$  12.16$  8.02$
|427>   Q  0.6645  15.08$  14.14$  9.04$
|428>   Q  0.6645  15.41$  13.97$  10.52$
|429>   Q  -1.3290  15.1$  14.4$  9.86$
|430>   Q  0.6645  16.31$  17.63$  9.89$
|431>   Q  0.6645  16.08$  16.06$  10.02$
|432>   Q  -1.3290  16.5$  16.82$  9.99$
|433>   Q  0.6645  17.75$  16.09$  8.39$
|434>   Q  0.6645  18.4$  15.28$  7.34$
|435>   Q  -1.3290  18.02$  15.95$  7.62$
|436>   Q  0.6645  18$  8.39$  13.45$
|437>   Q  0.6645  19.04$  8.26$  12.35$
|438>   Q  -1.3290  18.75$  8.54$  13.09$
|439>   Q  0.6645  13.62$  20.95$  13.84$
|440>   Q  0.6645  13.22$  19.54$  13.22$
|441>   Q  -1.3290  13.46$  20.11$  13.84$
|442>   Q  0.6645  2.91$  6.06$  16.02$
|443>   Q  0.6645  3.16$  4.62$  15.44$
|444>   Q  -1.3290  2.81$  5.22$  15.97$
|445>   Q  0.6645  8.43$  11.12$  5.3$
|446>   Q  0.6645  8.52$  10.15$  6.41$
|447>   Q  -1.3290  8.13$  10.69$  5.94$
|448>   Q  0.6645  6.93$  0.39$  8.53$
|449>   Q  0.6645  8.29$  0.54$  7.85$
|450>   Q  -1.3290  7.56$  0.8$  8.2$
|451>   Q  0.6645  20.56$  14$  7.76$
|452>   Q  0.6645  20.36$  12.66$  8.37$
|453>   Q  -1.3290  20.09$  13.34$  7.98$
|454>   Q  0.6645  6.5$  9.65$  5.25$
|455>   Q  0.6645  5.18$  8.91$  4.84$
|456>   Q  -1.3290  5.84$  9.46$  4.76$
|457>   Q  0.6645  3.13$  11.9$  15.01$
|458>   Q  0.6645  1.92$  11.14$  14.62$
|459>   Q  -1.3290  2.59$  11.61$  14.47$
|460>   Q  0.6645  8.87$  17.17$  19.44$
|461>   Q  0.6645  7.74$  17.32$  18.38$
|462>   Q  -1.3290  8.18$  17.5$  19.12$
|463>   Q  0.6645  6.15$  6.68$  12.83$
|464>   Q  0.6645  7.63$  6.4$  13.22$
|465>   Q  -1.3290  6.81$  6.23$  13.09$
|466>   Q  0.6645  13.73$  12.82$  4.84$
|467>   Q  0.6645  14.39$  13.57$  3.76$
|468>   Q  -1.3290  14.27$  13.35$  4.55$
|469>   Q  0.6645  19.91$  6.55$  17.67$
|470>   Q  0.6645  18.98$  7.33$  16.72$
|471>   Q  -1.3290  19.65$  7.23$  17.22$
|472>   Q  0.6645  16.92$  13.1$  3.09$
|473>   Q  0.6645  18.4$  13.25$  3$
|474>   Q  -1.3290  17.7$  12.93$  3.28$
|475>   Q  0.6645  4.54$  2.38$  10.51$
|476>   Q  0.6645  5.31$  3.67$  10.19$
|477>   Q  -1.3290  4.85$  3$  10.01$
|478>   Q  0.6645  14.45$  1.72$  13.66$
|479>   Q  0.6645  14.99$  1.31$  15.01$
|480>   Q  -1.3290  14.42$  1.38$  14.4$
|481>   Q  0.6645  8.45$  16.24$  1.92$
|482>   Q  0.6645  9.83$  16.15$  2.46$
|483>   Q  -1.3290  9.26$  16.47$  1.97$
|484>   Q  0.6645  4.39$  12.7$  8.57$
|485>   Q  0.6645  3.36$  13.15$  7.56$
|486>   Q  -1.3290  4.14$  13.09$  7.88$
|487>   Q  0.6645  11.24$  20$  11.55$
|488>   Q  0.6645  10.2$  21.04$  11.31$
|489>   Q  -1.3290  10.92$  20.69$  11.18$
|490>   Q  0.6645  16.53$  2.23$  16.79$
|491>   Q  0.6645  17.03$  2.88$  15.48$
|492>   Q  -1.3290  16.91$  2.82$  16.3$
|493>   Q  0.6645  5.6$  7.17$  9.24$
|494>   Q  0.6645  6.14$  5.76$  9.12$
|495>   Q  -1.3290  5.59$  6.36$  8.98$
|496>   Q  0.6645  15.29$  10.5$  19.89$
|497>   Q  0.6645  14.65$  9.14$  20.31$
|498>   Q  -1.3290  15.02$  9.91$  20.42$
|499>   Q  0.6645  3.53$  3.04$  13.91$
|500>   Q  0.6645  4.75$  3.65$  14.77$
|501>   Q  -1.3290  4.05$  3.66$  14.26$
|502>   Q  0.6645  2.64$  10.93$  18.65$
|503>   Q  0.6645  1.74$  9.79$  18.91$
|504>   Q  -1.3290  1.98$  10.44$  18.49$
|505>   Q  0.6645  4.14$  0.26$  12.64$
|506>   Q  0.6645  5.24$  1.17$  12.34$
|507>   Q  -1.3290  4.61$  0.65$  12.11$
|508>   Q  0.6645  13.73$  4.79$  9.37$
|509>   Q  0.6645  14.23$  4.42$  7.9$
|510>   Q  -1.3290  14.29$  4.73$  8.71$
|511>   Q  0.6645  17.52$  14.23$  11.47$
|512>   Q  0.6645  16.79$  14.45$  12.72$
|513>   Q  -1.3290  16.9$  14.13$  11.98$
|514>   Q  0.6645  6.92$  5.14$  11.55$
|515>   Q  0.6645  7.22$  3.63$  10.95$
|516>   Q  -1.3290  6.84$  4.46$  11.02$
|517>   Q  0.6645  7.9$  22.02$  11.24$
|518>   Q  0.6645  7.77$  20.57$  10.67$
|519>   Q  -1.3290  8.06$  21.19$  11.19$
|520>   Q  0.6645  10.58$  16.91$  18.24$
|521>   Q  0.6645  11.47$  16.77$  19.39$
|522>   Q  -1.3290  10.86$  16.53$  18.91$
|523>   Q  0.6645  2.56$  7.95$  14.74$
|524>   Q  0.6645  2.75$  8.85$  15.99$
|525>   Q  -1.3290  2.84$  8.15$  15.54$
|526>   Q  0.6645  8.66$  12.37$  2.88$
|527>   Q  0.6645  8.45$  10.83$  2.8$
|528>   Q  -1.3290  8.74$  11.57$  3.12$
|529>   Q  0.6645  8.27$  2.04$  9.64$
|530>   Q  0.6645  9.33$  2.83$  10.64$
|531>   Q  -1.3290  8.57$  2.42$  10.38$
|532>   Q  0.6645  4.86$  17.35$  11.12$
|533>   Q  0.6645  5.38$  17.89$  12.51$
|534>   Q  -1.3290  5.43$  17.54$  11.74$
|535>   Q  0.6645  7.25$  19.44$  14.3$
|536>   Q  0.6645  7.1$  20.43$  13.16$
|537>   Q  -1.3290  7.1$  20.21$  13.95$
|538>   Q  0.6645  7.1$  16.46$  7.43$
|539>   Q  0.6645  6.57$  15.3$  6.61$
|540>   Q  -1.3290  6.53$  15.92$  7.17$
|541>   Q  0.6645  6.2$  19.68$  9.55$
|542>   Q  0.6645  6.25$  18.48$  10.51$
|543>   Q  -1.3290  6.6$  19.04$  9.95$
|544>   Q  0.6645  5.46$  4.36$  5.24$
|545>   Q  0.6645  6.72$  5.14$  4.63$
|546>   Q  -1.3290  6.04$  4.59$  4.64$
|547>   Q  0.6645  16.43$  9.27$  11.85$
|548>   Q  0.6645  17.06$  8.07$  11.39$
|549>   Q  -1.3290  16.48$  8.48$  11.82$
|550>   Q  0.6645  12.36$  14.33$  21.99$
|551>   Q  0.6645  12.22$  13.89$  20.44$
|552>   Q  -1.3290  12.23$  13.8$  21.29$
|553>   Q  0.6645  20.44$  16.23$  17.45$
|554>   Q  0.6645  19.15$  16.87$  16.63$
|555>   Q  -1.3290  19.97$  16.53$  16.78$
|556>   Q  0.6645  9.2$  8.39$  3.11$
|557>   Q  0.6645  10.49$  8.58$  3.83$
|558>   Q  -1.3290  9.87$  8.13$  3.55$
|559>   Q  0.6645  11.87$  18.75$  9.25$
|560>   Q  0.6645  12.65$  17.9$  8.47$
|561>   Q  -1.3290  12.6$  18.49$  9$
|562>   Q  0.6645  17.2$  5.86$  4.96$
|563>   Q  0.6645  18.46$  6.13$  5.84$
|564>   Q  -1.3290  17.9$  5.65$  5.43$
|565>   Q  0.6645  14.15$  6.46$  13.11$
|566>   Q  0.6645  15$  7.22$  12.09$
|567>   Q  -1.3290  14.49$  6.6$  12.36$
|568>   Q  0.6645  10.87$  4.75$  17.55$
|569>   Q  0.6645  9.33$  5.27$  17.38$
|570>   Q  -1.3290  10.21$  5.32$  17.46$
|571>   Q  0.6645  20.17$  10.71$  2.55$
|572>   Q  0.6645  19.1$  10.06$  3.5$
|573>   Q  -1.3290  19.88$  10.29$  3.24$
|574>   Q  0.6645  10.36$  6.88$  18.78$
|575>   Q  0.6645  10.6$  7.31$  20.31$
|576>   Q  -1.3290  10.43$  7.42$  19.43$
|577>   Q  0.6645  14.7$  9.12$  2.78$
|578>   Q  0.6645  15.81$  8.28$  1.94$
|579>   Q  -1.3290  15.45$  8.67$  2.64$
|580>   Q  0.6645  10.89$  12.74$  0.3$
|581>   Q  0.6645  10.66$  11.31$  1.01$
|582>   Q  -1.3290  10.5$  12.14$  0.78$
|583>   Q  0.6645  1.7$  7.05$  12.37$
|584>   Q  0.6645  0.75$  7.43$  13.47$
|585>   Q  -1.3290  1.45$  7.53$  13.02$
|586>   Q  0.6645  13.68$  7.4$  19.74$
|587>   Q  0.6645  13.69$  6.85$  21.18$
|588>   Q  -1.3290  13.97$  7.34$  20.53$
|589>   Q  0.6645  21.87$  7.93$  9.34$
|590>   Q  0.6645  21.66$  8.89$  10.56$
|591>   Q  -1.3290  21.43$  8.3$  9.98$
|592>   Q  0.6645  1.49$  13$  8.52$
|593>   Q  0.6645  1.35$  12.71$  6.91$
|594>   Q  -1.3290  1.55$  13.14$  7.65$
|595>   Q  0.6645  10.67$  18.96$  6.92$
|596>   Q  0.6645  9.66$  17.89$  6.97$
|597>   Q  -1.3290  10.36$  18.2$  6.75$
|598>   Q  0.6645  16.18$  15.94$  6.61$
|599>   Q  0.6645  14.91$  15.03$  6.21$
|600>   Q  -1.3290  15.32$  15.73$  6.51$
|601>   Q  0.6645  8.94$  12.81$  16.86$
|602>   Q  0.6645  8.47$  13.65$  18.1$
|603>   Q  -1.3290  8.91$  13.49$  17.37$
|604>   Q  0.6645  3.26$  4.21$  9.38$
|605>   Q  0.6645  3.55$  5.76$  9.33$
|606>   Q  -1.3290  3.14$  5.03$  9.13$
|607>   Q  0.6645  11.76$  11.07$  19.42$
|608>   Q  0.6645  11.1$  9.71$  19.17$
|609>   Q  -1.3290  11.67$  10.24$  19.52$
|610>   Q  0.6645  12.16$  13.59$  18.23$
|611>   Q  0.6645  10.69$  13.34$  18.3$
|612>   Q  -1.3290  11.49$  13.19$  18.51$
|613>   Q  0.6645  17.8$  6.44$  15.23$
|614>   Q  0.6645  16.75$  7.51$  15.81$
|615>   Q  -1.3290  17.51$  7.16$  15.58$
|616>   Q  0.6645  3.4$  4.4$  6.24$
|617>   Q  0.6645  4.45$  4.8$  7.31$
|618>   Q  -1.3290  4.14$  4.57$  6.54$
|619>   Q  0.6645  19.91$  11.39$  15.98$
|620>   Q  0.6645  21.34$  11.47$  15.63$
|621>   Q  -1.3290  20.64$  11.77$  15.96$
|622>   Q  0.6645  2.86$  17.89$  10.78$
|623>   Q  0.6645  2.93$  16.9$  9.56$
|624>   Q  -1.3290  3.13$  17.21$  10.33$
|625>   Q  0.6645  10.57$  18.45$  16.02$
|626>   Q  0.6645  9.62$  17.53$  16.67$
|627>   Q  -1.3290  10.38$  17.85$  16.56$
|628>   Q  0.6645  8.07$  18.03$  8.94$
|629>   Q  0.6645  9.15$  17$  8.9$
|630>   Q  -1.3290  8.6$  17.5$  8.57$
|631>   Q  0.6645  8.03$  6.33$  6.26$
|632>   Q  0.6645  8.36$  7.14$  5.12$
|633>   Q  -1.3290  8.1$  6.48$  5.44$
|634>   Q  0.6645  18.82$  9.04$  18.12$
|635>   Q  0.6645  18.22$  10.37$  18.12$
|636>   Q  -1.3290  18.28$  9.61$  18.39$
|637>   Q  0.6645  15.96$  12.69$  6.8$
|638>   Q  0.6645  15.75$  12.06$  8.18$
|639>   Q  -1.3290  15.51$  12.56$  7.51$
|640>   Q  0.6645  17.66$  2.6$  13.21$
|641>   Q  0.6645  18.08$  1.19$  13.11$
|642>   Q  -1.3290  17.6$  1.8$  13.39$
|643>   Q  0.6645  18.55$  12.64$  6.78$
|644>   Q  0.6645  18.04$  12.68$  5.31$
|645>   Q  -1.3290  17.96$  12.65$  6.16$
|646>   Q  0.6645  5.32$  19.12$  6.76$
|647>   Q  0.6645  5.68$  18.07$  7.79$
|648>   Q  -1.3290  5.17$  18.62$  7.42$
|649>   Q  0.6645  18.29$  18.08$  14.29$
|650>   Q  0.6645  17.14$  17.26$  13.58$
|651>   Q  -1.3290  17.95$  17.46$  13.84$
|652>   Q  0.6645  0.46$  13.86$  12.52$
|653>   Q  0.6645  1.41$  13.3$  13.66$
|654>   Q  -1.3290  0.97$  13.9$  13.21$
|655>   Q  0.6645  17.29$  3.75$  5.99$
|656>   Q  0.6645  18.13$  2.51$  5.77$
|657>   Q  -1.3290  17.44$  2.95$  6.08$
|658>   Q  0.6645  2.68$  14.2$  12.28$
|659>   Q  0.6645  3.31$  15.17$  11.29$
|660>   Q  -1.3290  3.16$  14.4$  11.64$
|661>   Q  0.6645  2.54$  16.55$  14.93$
|662>   Q  0.6645  1.89$  15.23$  14.42$
|663>   Q  -1.3290  2.35$  15.73$  14.96$
|664>   Q  0.6645  16.48$  9.69$  3.97$
|665>   Q  0.6645  17.25$  10.99$  4.28$
|666>   Q  -1.3290  17.1$  10.14$  4.32$
|667>   Q  0.6645  19.46$  15.61$  11.41$
|668>   Q  0.6645  18.26$  16.35$  10.81$
|669>   Q  -1.3290  18.83$  15.71$  10.87$
|670>   Q  0.6645  12.7$  15.11$  2.31$
|671>   Q  0.6645  12.87$  16.31$  1.34$
|672>   Q  -1.3290  12.62$  15.53$  1.57$
|673> *
|674> 
|675>                          ****END OF INPUT****
================================================================================

                     *******************************
                     * Energy+Gradient Calculation *
                     *******************************

---------------------------------
CARTESIAN COORDINATES (ANGSTROEM)
---------------------------------
  C     12.410000   11.020000   11.870000
  H     13.040000   10.180000   12.320000
  H     11.570000   11.090000   12.570000
  C     12.030000   10.840000   10.430000
  H     11.700000   11.780000    9.890000
  H     12.960000   10.450000    9.900000
  C     10.920000    9.780000   10.270000
  H     11.320000    8.780000   10.250000
  H     10.430000    9.850000    9.230000
  C      9.760000    9.750000   11.300000
  H     10.180000    9.380000   12.310000
  H      8.980000    9.120000   10.940000
  O      9.190000   11.080000   11.400000
  H      8.550000   11.050000   12.140000
  O     13.240000   12.230000   12.020000
  H     12.690000   13.020000   11.760000
  O      6.980000   11.100000   13.950000
  H      6.790000   11.790000   13.270000
  H      6.280000   10.470000   14.100000
  O     11.160000    6.930000    8.530000
  H     11.690000    7.630000    8.050000
  H     11.170000    6.150000    7.960000
  O     13.420000   12.190000   15.100000
  H     13.360000   12.570000   14.230000
  H     12.690000   11.550000   15.220000
  O     11.570000    9.990000   15.350000
  H     10.750000   10.500000   15.460000
  H     11.250000    9.280000   14.780000
  O      7.180000   13.880000   12.830000
  H      8.140000   13.900000   12.810000
  H      6.910000   13.920000   11.920000
  O     15.840000   11.180000   12.180000
  H     14.920000   11.460000   12.200000
  H     16.290000   12.070000   12.130000
  O      9.570000   13.760000   14.080000
  H      9.330000   13.740000   14.980000
  H     10.250000   14.420000   14.230000
  O     12.880000    8.900000    7.870000
  H     13.570000    8.330000    7.630000
  H     12.930000    9.700000    7.350000
  O     12.640000    5.540000   10.330000
  H     12.450000    6.200000    9.650000
  H     13.180000    5.900000   11.040000
  O     13.860000   14.150000   17.260000
  H     14.470000   13.650000   17.870000
  H     13.650000   13.600000   16.480000
  O      8.310000    5.240000    8.060000
  H      7.990000    4.400000    7.800000
  H      9.270000    5.050000    8.100000
  O     13.520000    9.920000   17.320000
  H     12.860000    9.680000   16.650000
  H     13.060000    9.790000   18.190000
  O     11.290000    7.080000   14.970000
  H     10.740000    6.890000   15.740000
  H     10.800000    6.540000   14.330000
  O      8.720000   11.130000   16.030000
  H      8.690000   10.350000   16.600000
  H      8.050000   11.230000   15.370000
  O     11.080000    4.740000    7.240000
  H     11.390000    3.880000    7.550000
  H     11.290000    4.810000    6.290000
  O     11.490000   13.600000    7.580000
  H     11.820000   14.460000    7.880000
  H     10.810000   13.390000    8.270000
  O     12.740000   14.940000   11.710000
  H     13.470000   14.800000   11.110000
  H     13.180000   15.080000   12.560000
  O     10.310000   15.240000   10.240000
  H     11.230000   14.910000   10.470000
  H      9.730000   14.490000   10.040000
  O      6.370000   14.950000   10.200000
  H      5.920000   15.220000    9.380000
  H      6.220000   15.630000   10.830000
  O      4.650000   11.970000   16.300000
  H      4.550000   11.900000   17.250000
  H      4.970000   11.120000   15.990000
  O      5.450000    9.210000   15.520000
  H      5.810000    8.780000   16.290000
  H      4.670000    8.690000   15.330000
  O     16.070000   10.860000   15.220000
  H     16.000000   10.940000   14.280000
  H     15.240000   11.300000   15.410000
  O      6.390000    8.830000    9.390000
  H      5.590000    9.300000    9.080000
  H      6.120000    8.560000   10.320000
  O      9.360000    6.200000   10.760000
  H      9.870000    6.690000   10.140000
  H      8.870000    5.630000   10.170000
  O      8.650000    8.740000    7.670000
  H      9.300000    8.140000    7.970000
  H      7.890000    8.630000    8.270000
  O      9.320000   12.850000    9.450000
  H      8.520000   12.540000    9.020000
  H      9.390000   12.160000   10.110000
  O      5.900000   14.210000   15.160000
  H      5.380000   13.480000   15.490000
  H      6.480000   13.840000   14.420000
  Q     11.310000   12.940000    2.350000
  Q     11.570000   13.400000    3.760000
  Q     11.790000   13.140000    3.010000
  Q     15.020000   14.600000   14.440000
  Q     14.750000   16.120000   14.140000
  Q     14.550000   15.300000   14.250000
  Q      6.970000   17.350000   14.690000
  Q      8.060000   17.170000   13.580000
  Q      7.760000   17.440000   14.330000
  Q     15.640000    2.930000    8.620000
  Q     16.850000    2.350000    7.980000
  Q     16.210000    2.360000    8.560000
  Q     13.440000   10.730000    1.890000
  Q     12.640000   10.350000    3.210000
  Q     13.060000   10.190000    2.490000
  Q      2.680000   16.090000    7.300000
  Q      1.890000   15.040000    8.080000
  Q      2.180000   15.810000    7.920000
  Q     12.640000   15.350000   15.030000
  Q     11.590000   16.220000   15.790000
  Q     11.860000   15.640000   15.230000
  Q     16.490000    8.540000   18.220000
  Q     15.070000    8.850000   17.730000
  Q     15.740000    8.380000   17.840000
  Q      9.680000    2.750000    5.980000
  Q     10.910000    2.350000    5.180000
  Q     10.370000    2.330000    5.850000
  Q     14.020000    5.730000   15.570000
  Q     12.810000    6.380000   14.790000
  Q     13.430000    5.800000   14.940000
  Q      3.410000    9.670000    8.130000
  Q      4.280000    9.850000    6.850000
  Q      4.140000    9.670000    7.670000
  Q     11.730000    1.570000    7.520000
  Q     13.090000    1.240000    8.180000
  Q     12.330000    1.600000    8.130000
  Q      8.470000   12.210000   19.990000
  Q      9.150000   11.520000   21.080000
  Q      8.570000   11.570000   20.500000
  Q     15.700000    6.350000   17.600000
  Q     15.960000    4.780000   17.150000
  Q     15.520000    5.510000   17.420000
  Q     12.890000    2.420000   14.910000
  Q     12.740000    3.990000   14.980000
  Q     12.520000    3.160000   15.140000
  Q      4.430000   12.900000   10.900000
  Q      5.790000   12.370000   10.140000
  Q      4.930000   12.380000   10.420000
  Q     17.790000   14.430000   18.260000
  Q     18.660000   14.970000   17.130000
  Q     17.980000   14.610000   17.450000
  Q      1.330000   10.240000   16.520000
  Q      0.340000    9.500000   15.630000
  Q      0.920000   10.070000   15.790000
  Q      4.570000   15.270000   17.440000
  Q      5.980000   15.000000   17.020000
  Q      5.410000   15.230000   17.570000
  Q     17.050000    9.680000    6.620000
  Q     17.580000    8.670000    7.570000
  Q     17.000000    9.190000    7.240000
  Q     14.600000   17.430000   17.490000
  Q     14.450000   15.880000   17.610000
  Q     14.810000   16.650000   17.730000
  Q      4.890000   16.350000   14.930000
  Q      4.430000   17.920000   15.070000
  Q      4.970000   17.230000   14.940000
  Q      9.680000    5.840000   12.380000
  Q      9.470000    4.690000   13.530000
  Q      9.610000    5.500000   13.180000
  Q      2.270000    8.550000    3.770000
  Q      2.580000    7.770000    5.100000
  Q      2.060000    8.140000    4.530000
  Q      9.410000    5.300000    4.720000
  Q     10.190000    6.020000    3.760000
  Q     10.070000    5.380000    4.270000
  Q     15.630000    5.120000   12.410000
  Q     16.730000    4.810000   11.450000
  Q     16.240000    4.620000   12.080000
  Q     11.440000    2.850000    2.630000
  Q     10.920000    3.810000    3.560000
  Q     11.420000    3.160000    3.370000
  Q     17.870000    4.520000    9.580000
  Q     16.440000    5.090000    9.590000
  Q     17.240000    5.050000    9.800000
  Q      9.330000    8.980000   18.900000
  Q      8.580000   10.190000   19.260000
  Q      8.880000    9.630000   18.720000
  Q     -0.060000   10.420000   12.130000
  Q      1.430000    9.790000   12.180000
  Q      0.710000   10.160000   11.840000
  Q      7.460000    2.290000    6.390000
  Q      7.240000    3.300000    5.410000
  Q      7.610000    3.010000    6.070000
  Q      8.280000   16.350000   15.830000
  Q      8.450000   15.480000   17.180000
  Q      8.250000   16.160000   16.670000
  Q     20.670000   10.240000    8.730000
  Q     21.170000   10.590000    7.350000
  Q     21.060000   10.720000    8.160000
  Q      4.240000   10.810000   11.390000
  Q      3.330000   10.800000   12.760000
  Q      3.720000   10.510000   12.010000
  Q     14.480000   18.750000    9.940000
  Q     15.050000   19.870000   10.660000
  Q     15.060000   19.100000   10.400000
  Q     11.610000   20.680000    8.020000
  Q     10.800000   20.670000    9.220000
  Q     10.910000   20.600000    8.400000
  Q     15.170000    2.950000   11.770000
  Q     13.710000    2.750000   11.520000
  Q     14.450000    2.520000   11.750000
  Q     17.790000    5.000000   13.290000
  Q     19.010000    4.600000   14.320000
  Q     18.340000    5.050000   14.000000
  Q      7.920000    2.330000   17.120000
  Q      9.400000    2.690000   17.320000
  Q      8.730000    2.460000   16.890000
  Q      7.130000    8.930000   18.190000
  Q      6.390000    8.040000   18.980000
  Q      6.510000    8.450000   18.280000
  Q     12.420000   12.290000    7.000000
  Q     13.870000   11.860000    6.800000
  Q     13.050000   11.750000    6.670000
  Q     13.610000   16.200000    7.260000
  Q     12.210000   16.700000    6.830000
  Q     12.770000   16.380000    7.370000
  Q      3.590000   13.010000   19.430000
  Q      3.880000   11.680000   20.120000
  Q      3.850000   12.220000   19.470000
  Q      6.970000    0.670000   13.910000
  Q      7.810000    1.630000   13.160000
  Q      7.110000    1.310000   13.410000
  Q     17.370000   11.430000   16.080000
  Q     17.720000   12.850000   16.800000
  Q     17.700000   11.980000   16.650000
  Q      7.160000    4.730000   16.520000
  Q      6.670000    4.750000   18.010000
  Q      7.240000    4.830000   17.350000
  Q      6.430000   14.520000   19.230000
  Q      7.430000   14.320000   20.400000
  Q      7.020000   14.100000   19.680000
  Q     19.630000   10.340000   13.130000
  Q     19.820000   11.290000   11.850000
  Q     19.990000   10.940000   12.640000
  Q     19.870000    7.000000    6.850000
  Q     19.360000    8.120000    6.090000
  Q     19.360000    7.640000    6.750000
  Q     10.400000   10.950000    4.170000
  Q     11.640000   10.810000    5.270000
  Q     11.100000   10.590000    4.620000
  Q      4.100000    6.350000    6.300000
  Q      4.540000    7.660000    7.000000
  Q      4.260000    7.180000    6.330000
  Q      8.740000   13.640000    5.320000
  Q     10.160000   13.430000    6.080000
  Q      9.600000   13.590000    5.420000
  Q     10.300000    2.770000   13.450000
  Q      9.530000    2.710000   14.790000
  Q      9.600000    2.770000   13.940000
  Q     16.430000   21.710000   13.330000
  Q     16.500000   20.270000   13.840000
  Q     16.630000   20.910000   13.300000
  Q     11.970000    9.550000    1.130000
  Q     11.690000    9.750000   -0.440000
  Q     11.490000    9.640000    0.410000
  Q      5.250000   11.140000    4.640000
  Q      4.940000   12.260000    5.890000
  Q      4.850000   11.830000    5.090000
  Q     10.670000   16.760000    5.400000
  Q     10.040000   15.510000    4.850000
  Q     10.510000   16.200000    4.780000
  Q     11.580000    6.220000    0.740000
  Q     11.100000    7.720000    0.840000
  Q     11.020000    6.880000    0.690000
  Q      1.110000   12.070000   10.670000
  Q      1.830000   13.560000   10.630000
  Q      1.180000   12.950000   10.490000
  Q     11.630000    2.710000   17.000000
  Q     11.440000    1.870000   18.200000
  Q     11.460000    2.600000   17.850000
  Q     12.970000   18.410000   11.290000
  Q     11.580000   17.950000   12.060000
  Q     12.280000   18.450000   11.860000
  Q     12.580000   19.190000   16.970000
  Q     12.950000   18.810000   18.390000
  Q     13.100000   19.150000   17.630000
  Q      4.770000    6.150000    3.380000
  Q      3.300000    5.950000    2.830000
  Q      4.080000    6.350000    2.920000
  Q      8.810000    6.700000    0.860000
  Q      7.500000    7.120000    1.480000
  Q      7.990000    6.750000    0.920000
  Q     17.460000   18.790000    5.820000
  Q     17.930000   17.600000    6.430000
  Q     17.800000   18.080000    5.800000
  Q     13.320000   19.300000    5.930000
  Q     13.090000   20.770000    6.180000
  Q     12.930000   19.960000    6.270000
  Q     12.910000   21.390000   10.870000
  Q     14.070000   22.430000   11.180000
  Q     13.720000   21.670000   10.930000
  Q     16.710000   10.640000    8.790000
  Q     16.040000   11.110000   10.120000
  Q     16.490000   11.180000    9.390000
  Q     16.260000   11.970000   18.100000
  Q     14.790000   11.490000   17.780000
  Q     15.440000   11.800000   18.240000
  Q      5.840000   17.670000   16.830000
  Q      6.380000   19.150000   17.360000
  Q      5.830000   18.440000   17.300000
  Q     13.020000    3.610000   18.880000
  Q     14.230000    4.460000   18.610000
  Q     13.700000    4.040000   19.110000
  Q      3.630000    5.240000   12.880000
  Q      2.780000    5.250000   11.410000
  Q      3.350000    5.480000   12.050000
  Q     15.160000    6.850000    5.630000
  Q     15.680000    7.250000    4.160000
  Q     15.420000    6.690000    4.790000
  Q     11.010000   16.380000   13.280000
  Q     10.410000   16.020000   11.930000
  Q     10.500000   16.510000   12.610000
  Q     18.270000   12.190000   10.180000
  Q     19.340000   13.190000   10.310000
  Q     18.980000   12.450000   10.480000
  Q      1.960000   10.240000    9.910000
  Q      1.140000   10.180000    8.680000
  Q      1.830000   10.230000    9.090000
  Q      8.800000   13.540000    1.270000
  Q      7.310000   13.750000    1.320000
  Q      8.080000   13.810000    1.620000
  Q     15.400000   17.560000   12.160000
  Q     15.440000   18.300000   13.460000
  Q     15.470000   17.600000   12.990000
  Q      4.550000    8.720000   12.110000
  Q      4.280000    7.170000   11.910000
  Q      4.790000    7.920000   11.980000
  Q     16.040000   18.560000   15.830000
  Q     14.800000   19.400000   15.090000
  Q     15.620000   19.210000   15.400000
  Q     19.610000   12.970000   13.670000
  Q     19.690000   13.140000   15.120000
  Q     19.480000   13.380000   14.360000
  Q     15.570000    7.980000    7.570000
  Q     15.030000    6.460000    7.870000
  Q     15.040000    7.260000    7.510000
  Q     17.680000   18.450000   17.240000
  Q     16.900000   17.090000   17.460000
  Q     17.360000   17.680000   17.030000
  Q     11.770000    2.420000   10.180000
  Q     11.750000    3.890000   10.670000
  Q     11.600000    3.070000   10.670000
  Q      3.330000    0.770000    8.190000
  Q      4.100000    2.160000    8.280000
  Q      3.820000    1.440000    7.890000
  Q     15.470000   14.820000    1.860000
  Q     14.980000   13.380000    1.430000
  Q     15.430000   13.990000    1.900000
  Q     15.280000   18.420000    4.880000
  Q     14.870000   17.320000    5.680000
  Q     14.720000   17.970000    5.240000
  Q     10.490000   20.540000   15.470000
  Q     11.780000   20.290000   14.660000
  Q     11.060000   20.080000   15.090000
  Q     13.670000    2.700000    6.470000
  Q     15.100000    3.010000    5.990000
  Q     14.340000    3.190000    6.360000
  Q      6.450000    4.810000   14.210000
  Q      7.060000    3.420000   14.550000
  Q      6.620000    4.120000   14.700000
  Q     17.460000   13.940000   14.610000
  Q     16.640000   14.710000   15.800000
  Q     16.770000   14.260000   15.050000
  Q     13.380000    3.960000    3.630000
  Q     14.510000    4.800000    4.170000
  Q     14.200000    4.180000    3.690000
  Q     21.190000    6.530000   11.520000
  Q     20.580000    6.330000   12.810000
  Q     21.150000    6.200000   12.260000
  Q      6.770000   14.950000    3.990000
  Q      5.930000   13.960000    4.810000
  Q      6.580000   14.470000    4.650000
  Q     13.600000   17.730000    3.750000
  Q     12.130000   17.280000    3.500000
  Q     12.850000   17.640000    3.320000
  Q      2.080000    6.970000    7.250000
  Q      1.640000    5.990000    8.320000
  Q      1.590000    6.710000    7.850000
  Q     18.040000    6.730000   10.330000
  Q     19.260000    7.730000   10.310000
  Q     18.510000    7.400000   10.590000
  Q     20.320000    7.910000   14.450000
  Q     21.060000    7.490000   15.800000
  Q     20.970000    7.770000   14.990000
  Q     19.470000   16.410000   13.480000
  Q     20.140000   15.060000   13.770000
  Q     20.040000   15.790000   13.340000
  Q      6.660000    8.990000    2.940000
  Q      6.920000    9.260000    1.410000
  Q      7.160000    9.090000    2.240000
  Q      7.060000   11.670000    7.370000
  Q      6.180000   12.750000    8.100000
  Q      6.800000   12.160000    8.020000
  Q     15.080000   14.140000    9.040000
  Q     15.410000   13.970000   10.520000
  Q     15.100000   14.400000    9.860000
  Q     16.310000   17.630000    9.890000
  Q     16.080000   16.060000   10.020000
  Q     16.500000   16.820000    9.990000
  Q     17.750000   16.090000    8.390000
  Q     18.400000   15.280000    7.340000
  Q     18.020000   15.950000    7.620000
  Q     18.000000    8.390000   13.450000
  Q     19.040000    8.260000   12.350000
  Q     18.750000    8.540000   13.090000
  Q     13.620000   20.950000   13.840000
  Q     13.220000   19.540000   13.220000
  Q     13.460000   20.110000   13.840000
  Q      2.910000    6.060000   16.020000
  Q      3.160000    4.620000   15.440000
  Q      2.810000    5.220000   15.970000
  Q      8.430000   11.120000    5.300000
  Q      8.520000   10.150000    6.410000
  Q      8.130000   10.690000    5.940000
  Q      6.930000    0.390000    8.530000
  Q      8.290000    0.540000    7.850000
  Q      7.560000    0.800000    8.200000
  Q     20.560000   14.000000    7.760000
  Q     20.360000   12.660000    8.370000
  Q     20.090000   13.340000    7.980000
  Q      6.500000    9.650000    5.250000
  Q      5.180000    8.910000    4.840000
  Q      5.840000    9.460000    4.760000
  Q      3.130000   11.900000   15.010000
  Q      1.920000   11.140000   14.620000
  Q      2.590000   11.610000   14.470000
  Q      8.870000   17.170000   19.440000
  Q      7.740000   17.320000   18.380000
  Q      8.180000   17.500000   19.120000
  Q      6.150000    6.680000   12.830000
  Q      7.630000    6.400000   13.220000
  Q      6.810000    6.230000   13.090000
  Q     13.730000   12.820000    4.840000
  Q     14.390000   13.570000    3.760000
  Q     14.270000   13.350000    4.550000
  Q     19.910000    6.550000   17.670000
  Q     18.980000    7.330000   16.720000
  Q     19.650000    7.230000   17.220000
  Q     16.920000   13.100000    3.090000
  Q     18.400000   13.250000    3.000000
  Q     17.700000   12.930000    3.280000
  Q      4.540000    2.380000   10.510000
  Q      5.310000    3.670000   10.190000
  Q      4.850000    3.000000   10.010000
  Q     14.450000    1.720000   13.660000
  Q     14.990000    1.310000   15.010000
  Q     14.420000    1.380000   14.400000
  Q      8.450000   16.240000    1.920000
  Q      9.830000   16.150000    2.460000
  Q      9.260000   16.470000    1.970000
  Q      4.390000   12.700000    8.570000
  Q      3.360000   13.150000    7.560000
  Q      4.140000   13.090000    7.880000
  Q     11.240000   20.000000   11.550000
  Q     10.200000   21.040000   11.310000
  Q     10.920000   20.690000   11.180000
  Q     16.530000    2.230000   16.790000
  Q     17.030000    2.880000   15.480000
  Q     16.910000    2.820000   16.300000
  Q      5.600000    7.170000    9.240000
  Q      6.140000    5.760000    9.120000
  Q      5.590000    6.360000    8.980000
  Q     15.290000   10.500000   19.890000
  Q     14.650000    9.140000   20.310000
  Q     15.020000    9.910000   20.420000
  Q      3.530000    3.040000   13.910000
  Q      4.750000    3.650000   14.770000
  Q      4.050000    3.660000   14.260000
  Q      2.640000   10.930000   18.650000
  Q      1.740000    9.790000   18.910000
  Q      1.980000   10.440000   18.490000
  Q      4.140000    0.260000   12.640000
  Q      5.240000    1.170000   12.340000
  Q      4.610000    0.650000   12.110000
  Q     13.730000    4.790000    9.370000
  Q     14.230000    4.420000    7.900000
  Q     14.290000    4.730000    8.710000
  Q     17.520000   14.230000   11.470000
  Q     16.790000   14.450000   12.720000
  Q     16.900000   14.130000   11.980000
  Q      6.920000    5.140000   11.550000
  Q      7.220000    3.630000   10.950000
  Q      6.840000    4.460000   11.020000
  Q      7.900000   22.020000   11.240000
  Q      7.770000   20.570000   10.670000
  Q      8.060000   21.190000   11.190000
  Q     10.580000   16.910000   18.240000
  Q     11.470000   16.770000   19.390000
  Q     10.860000   16.530000   18.910000
  Q      2.560000    7.950000   14.740000
  Q      2.750000    8.850000   15.990000
  Q      2.840000    8.150000   15.540000
  Q      8.660000   12.370000    2.880000
  Q      8.450000   10.830000    2.800000
  Q      8.740000   11.570000    3.120000
  Q      8.270000    2.040000    9.640000
  Q      9.330000    2.830000   10.640000
  Q      8.570000    2.420000   10.380000
  Q      4.860000   17.350000   11.120000
  Q      5.380000   17.890000   12.510000
  Q      5.430000   17.540000   11.740000
  Q      7.250000   19.440000   14.300000
  Q      7.100000   20.430000   13.160000
  Q      7.100000   20.210000   13.950000
  Q      7.100000   16.460000    7.430000
  Q      6.570000   15.300000    6.610000
  Q      6.530000   15.920000    7.170000
  Q      6.200000   19.680000    9.550000
  Q      6.250000   18.480000   10.510000
  Q      6.600000   19.040000    9.950000
  Q      5.460000    4.360000    5.240000
  Q      6.720000    5.140000    4.630000
  Q      6.040000    4.590000    4.640000
  Q     16.430000    9.270000   11.850000
  Q     17.060000    8.070000   11.390000
  Q     16.480000    8.480000   11.820000
  Q     12.360000   14.330000   21.990000
  Q     12.220000   13.890000   20.440000
  Q     12.230000   13.800000   21.290000
  Q     20.440000   16.230000   17.450000
  Q     19.150000   16.870000   16.630000
  Q     19.970000   16.530000   16.780000
  Q      9.200000    8.390000    3.110000
  Q     10.490000    8.580000    3.830000
  Q      9.870000    8.130000    3.550000
  Q     11.870000   18.750000    9.250000
  Q     12.650000   17.900000    8.470000
  Q     12.600000   18.490000    9.000000
  Q     17.200000    5.860000    4.960000
  Q     18.460000    6.130000    5.840000
  Q     17.900000    5.650000    5.430000
  Q     14.150000    6.460000   13.110000
  Q     15.000000    7.220000   12.090000
  Q     14.490000    6.600000   12.360000
  Q     10.870000    4.750000   17.550000
  Q      9.330000    5.270000   17.380000
  Q     10.210000    5.320000   17.460000
  Q     20.170000   10.710000    2.550000
  Q     19.100000   10.060000    3.500000
  Q     19.880000   10.290000    3.240000
  Q     10.360000    6.880000   18.780000
  Q     10.600000    7.310000   20.310000
  Q     10.430000    7.420000   19.430000
  Q     14.700000    9.120000    2.780000
  Q     15.810000    8.280000    1.940000
  Q     15.450000    8.670000    2.640000
  Q     10.890000   12.740000    0.300000
  Q     10.660000   11.310000    1.010000
  Q     10.500000   12.140000    0.780000
  Q      1.700000    7.050000   12.370000
  Q      0.750000    7.430000   13.470000
  Q      1.450000    7.530000   13.020000
  Q     13.680000    7.400000   19.740000
  Q     13.690000    6.850000   21.180000
  Q     13.970000    7.340000   20.530000
  Q     21.870000    7.930000    9.340000
  Q     21.660000    8.890000   10.560000
  Q     21.430000    8.300000    9.980000
  Q      1.490000   13.000000    8.520000
  Q      1.350000   12.710000    6.910000
  Q      1.550000   13.140000    7.650000
  Q     10.670000   18.960000    6.920000
  Q      9.660000   17.890000    6.970000
  Q     10.360000   18.200000    6.750000
  Q     16.180000   15.940000    6.610000
  Q     14.910000   15.030000    6.210000
  Q     15.320000   15.730000    6.510000
  Q      8.940000   12.810000   16.860000
  Q      8.470000   13.650000   18.100000
  Q      8.910000   13.490000   17.370000
  Q      3.260000    4.210000    9.380000
  Q      3.550000    5.760000    9.330000
  Q      3.140000    5.030000    9.130000
  Q     11.760000   11.070000   19.420000
  Q     11.100000    9.710000   19.170000
  Q     11.670000   10.240000   19.520000
  Q     12.160000   13.590000   18.230000
  Q     10.690000   13.340000   18.300000
  Q     11.490000   13.190000   18.510000
  Q     17.800000    6.440000   15.230000
  Q     16.750000    7.510000   15.810000
  Q     17.510000    7.160000   15.580000
  Q      3.400000    4.400000    6.240000
  Q      4.450000    4.800000    7.310000
  Q      4.140000    4.570000    6.540000
  Q     19.910000   11.390000   15.980000
  Q     21.340000   11.470000   15.630000
  Q     20.640000   11.770000   15.960000
  Q      2.860000   17.890000   10.780000
  Q      2.930000   16.900000    9.560000
  Q      3.130000   17.210000   10.330000
  Q     10.570000   18.450000   16.020000
  Q      9.620000   17.530000   16.670000
  Q     10.380000   17.850000   16.560000
  Q      8.070000   18.030000    8.940000
  Q      9.150000   17.000000    8.900000
  Q      8.600000   17.500000    8.570000
  Q      8.030000    6.330000    6.260000
  Q      8.360000    7.140000    5.120000
  Q      8.100000    6.480000    5.440000
  Q     18.820000    9.040000   18.120000
  Q     18.220000   10.370000   18.120000
  Q     18.280000    9.610000   18.390000
  Q     15.960000   12.690000    6.800000
  Q     15.750000   12.060000    8.180000
  Q     15.510000   12.560000    7.510000
  Q     17.660000    2.600000   13.210000
  Q     18.080000    1.190000   13.110000
  Q     17.600000    1.800000   13.390000
  Q     18.550000   12.640000    6.780000
  Q     18.040000   12.680000    5.310000
  Q     17.960000   12.650000    6.160000
  Q      5.320000   19.120000    6.760000
  Q      5.680000   18.070000    7.790000
  Q      5.170000   18.620000    7.420000
  Q     18.290000   18.080000   14.290000
  Q     17.140000   17.260000   13.580000
  Q     17.950000   17.460000   13.840000
  Q      0.460000   13.860000   12.520000
  Q      1.410000   13.300000   13.660000
  Q      0.970000   13.900000   13.210000
  Q     17.290000    3.750000    5.990000
  Q     18.130000    2.510000    5.770000
  Q     17.440000    2.950000    6.080000
  Q      2.680000   14.200000   12.280000
  Q      3.310000   15.170000   11.290000
  Q      3.160000   14.400000   11.640000
  Q      2.540000   16.550000   14.930000
  Q      1.890000   15.230000   14.420000
  Q      2.350000   15.730000   14.960000
  Q     16.480000    9.690000    3.970000
  Q     17.250000   10.990000    4.280000
  Q     17.100000   10.140000    4.320000
  Q     19.460000   15.610000   11.410000
  Q     18.260000   16.350000   10.810000
  Q     18.830000   15.710000   10.870000
  Q     12.700000   15.110000    2.310000
  Q     12.870000   16.310000    1.340000
  Q     12.620000   15.530000    1.570000

----------------------------
CARTESIAN COORDINATES (A.U.)
----------------------------
  NO LB      ZA    FRAG     MASS         X           Y           Z
   0 C     6.0000    0    12.011   23.451501   20.824782   22.431049
   1 H     1.0000    0     1.008   24.642029   19.237412   23.281426
   2 H     1.0000    0     1.008   21.864131   20.957063   23.753858
   3 C     6.0000    0    12.011   22.733405   20.484631   19.709844
   4 H     1.0000    0     1.008   22.109796   22.260974   18.689391
   5 H     1.0000    0     1.008   24.490851   19.747638   18.708289
   6 C     6.0000    0    12.011   20.635809   18.481522   19.407487
   7 H     1.0000    0     1.008   21.391700   16.591795   19.369693
   8 H     1.0000    0     1.008   19.709844   18.613802   17.442172
   9 C     6.0000    0    12.011   18.443727   18.424830   21.353905
  10 H     1.0000    0     1.008   19.237412   17.725631   23.262529
  11 H     1.0000    0     1.008   16.969741   17.234302   20.673604
  12 O     8.0000    0    15.999   17.366583   20.938166   21.542878
  13 H     1.0000    0     1.008   16.157158   20.881474   22.941275
  14 O     8.0000    0    15.999   25.019974   23.111351   22.714508
  15 H     1.0000    0     1.008   23.980625   24.604234   22.223179
  16 O     8.0000    0    15.999   13.190288   20.975960   26.361680
  17 H     1.0000    0     1.008   12.831240   22.279871   25.076666
  18 H     1.0000    0     1.008   11.867480   19.785433   26.645138
  19 O     8.0000    0    15.999   21.089344   13.095802   16.119364
  20 H     1.0000    0     1.008   22.090899   14.418610   15.212295
  21 H     1.0000    0     1.008   21.108241   11.621816   15.042220
  22 O     8.0000    0    15.999   25.360125   23.035762   28.534865
  23 H     1.0000    0     1.008   25.246741   23.753858   26.890803
  24 H     1.0000    0     1.008   23.980625   21.826337   28.761632
  25 O     8.0000    0    15.999   21.864131   18.878364   29.007296
  26 H     1.0000    0     1.008   20.314556   19.842124   29.215166
  27 H     1.0000    0     1.008   21.259419   17.536659   27.930152
  28 O     8.0000    0    15.999   13.568234   26.229399   24.245186
  29 H     1.0000    0     1.008   15.382371   26.267193   24.207392
  30 H     1.0000    0     1.008   13.058008   26.304988   22.525536
  31 O     8.0000    0    15.999   29.933262   21.127138   23.016864
  32 H     1.0000    0     1.008   28.194714   21.656261   23.054659
  33 H     1.0000    0     1.008   30.783639   22.808994   22.922378
  34 O     8.0000    0    15.999   18.084679   26.002632   26.607344
  35 H     1.0000    0     1.008   17.631145   25.964837   28.308097
  36 H     1.0000    0     1.008   19.369693   27.249851   26.890803
  37 O     8.0000    0    15.999   24.339673   16.818563   14.872145
  38 H     1.0000    0     1.008   25.643584   15.741419   14.418610
  39 H     1.0000    0     1.008   24.434159   18.330343   13.889487
  40 O     8.0000    0    15.999   23.886138   10.469083   19.520871
  41 H     1.0000    0     1.008   23.527090   11.716302   18.235857
  42 H     1.0000    0     1.008   24.906590   11.149384   20.862577
  43 O     8.0000    0    15.999   26.191604   26.739625   32.616673
  44 H     1.0000    0     1.008   27.344337   25.794762   33.769406
  45 H     1.0000    0     1.008   25.794762   25.700275   31.142687
  46 O     8.0000    0    15.999   15.703624    9.902165   15.231193
  47 H     1.0000    0     1.008   15.098912    8.314795   14.739864
  48 H     1.0000    0     1.008   17.517761    9.543117   15.306782
  49 O     8.0000    0    15.999   25.549097   18.746083   32.730057
  50 H     1.0000    0     1.008   24.301878   18.292549   31.463940
  51 H     1.0000    0     1.008   24.679823   18.500419   34.374118
  52 O     8.0000    0    15.999   21.335008   13.379261   28.289200
  53 H     1.0000    0     1.008   20.295659   13.020213   29.744289
  54 H     1.0000    0     1.008   20.409042   12.358809   27.079775
  55 O     8.0000    0    15.999   16.478412   21.032652   30.292310
  56 H     1.0000    0     1.008   16.421720   19.558665   31.369454
  57 H     1.0000    0     1.008   15.212295   21.221624   29.045091
  58 O     8.0000    0    15.999   20.938166    8.957302   13.681617
  59 H     1.0000    0     1.008   21.523981    7.332137   14.267432
  60 H     1.0000    0     1.008   21.335008    9.089583   11.886377
  61 O     8.0000    0    15.999   21.712953   25.700275   14.324124
  62 H     1.0000    0     1.008   22.336563   27.325440   14.891042
  63 H     1.0000    0     1.008   20.427940   25.303433   15.628035
  64 O     8.0000    0    15.999   24.075111   28.232508   22.128693
  65 H     1.0000    0     1.008   25.454611   27.967947   20.994857
  66 H     1.0000    0     1.008   24.906590   28.497070   23.734960
  67 O     8.0000    0    15.999   19.483076   28.799426   19.350796
  68 H     1.0000    0     1.008   21.221624   28.175817   19.785433
  69 H     1.0000    0     1.008   18.387035   27.382132   18.972850
  70 O     8.0000    0    15.999   12.037555   28.251406   19.275207
  71 H     1.0000    0     1.008   11.187179   28.761632   17.725631
  72 H     1.0000    0     1.008   11.754097   29.536419   20.465734
  73 O     8.0000    0    15.999    8.787227   22.620022   30.802536
  74 H     1.0000    0     1.008    8.598254   22.487741   32.597776
  75 H     1.0000    0     1.008    9.391939   21.013755   30.216721
  76 O     8.0000    0    15.999   10.299007   17.404378   29.328550
  77 H     1.0000    0     1.008   10.979309   16.591795   30.783639
  78 H     1.0000    0     1.008    8.825021   16.421720   28.969502
  79 O     8.0000    0    15.999   30.367899   20.522426   28.761632
  80 H     1.0000    0     1.008   30.235618   20.673604   26.985289
  81 H     1.0000    0     1.008   28.799426   21.353905   29.120680
  82 O     8.0000    0    15.999   12.075350   16.686282   17.744528
  83 H     1.0000    0     1.008   10.563569   17.574453   17.158713
  84 H     1.0000    0     1.008   11.565124   16.176056   19.501974
  85 O     8.0000    0    15.999   17.687837   11.716302   20.333453
  86 H     1.0000    0     1.008   18.651597   12.642268   19.161823
  87 H     1.0000    0     1.008   16.761871   10.639158   19.218515
  88 O     8.0000    0    15.999   16.346131   16.516206   14.494199
  89 H     1.0000    0     1.008   17.574453   15.382371   15.061117
  90 H     1.0000    0     1.008   14.909939   16.308337   15.628035
  91 O     8.0000    0    15.999   17.612248   24.282981   17.857912
  92 H     1.0000    0     1.008   16.100467   23.697166   17.045330
  93 H     1.0000    0     1.008   17.744528   22.979070   19.105131
  94 O     8.0000    0    15.999   11.149384   26.853008   28.648248
  95 H     1.0000    0     1.008   10.166727   25.473508   29.271858
  96 H     1.0000    0     1.008   12.245425   26.153810   27.249851
  97 Q     0.6645    0     0.000   21.372803   24.453056    4.440856
  98 Q     0.6645    0     0.000   21.864131   25.322330    7.105370
  99 Q    -1.3290    0     0.000   22.279871   24.831001    5.688076
 100 Q     0.6645    0     0.000   28.383687   27.590002   27.287645
 101 Q     0.6645    0     0.000   27.873460   30.462385   26.720728
 102 Q    -1.3290    0     0.000   27.495515   28.912810   26.928597
 103 Q     0.6645    0     0.000   13.171391   32.786748   27.760077
 104 Q     0.6645    0     0.000   15.231193   32.446598   25.662481
 105 Q    -1.3290    0     0.000   14.664275   32.956824   27.079775
 106 Q     0.6645    0     0.000   29.555317    5.536898   16.289439
 107 Q     0.6645    0     0.000   31.841885    4.440856   15.080015
 108 Q    -1.3290    0     0.000   30.632461    4.459754   16.176056
 109 Q     0.6645    0     0.000   25.397919   20.276761    3.571582
 110 Q     0.6645    0     0.000   23.886138   19.558665    6.066021
 111 Q    -1.3290    0     0.000   24.679823   19.256309    4.705418
 112 Q     0.6645    0     0.000    5.064466   30.405693   13.795001
 113 Q     0.6645    0     0.000    3.571582   28.421481   15.268987
 114 Q    -1.3290    0     0.000    4.119603   29.876570   14.966631
 115 Q     0.6645    0     0.000   23.886138   29.007296   28.402584
 116 Q     0.6645    0     0.000   21.901926   30.651358   29.838776
 117 Q    -1.3290    0     0.000   22.412152   29.555317   28.780529
 118 Q     0.6645    0     0.000   31.161584   16.138261   34.430810
 119 Q     0.6645    0     0.000   28.478173   16.724076   33.504844
 120 Q    -1.3290    0     0.000   29.744289   15.835905   33.712714
 121 Q     0.6645    0     0.000   18.292549    5.196747   11.300562
 122 Q     0.6645    0     0.000   20.616912    4.440856    9.788781
 123 Q    -1.3290    0     0.000   19.596460    4.403062   11.054898
 124 Q     0.6645    0     0.000   26.493960   10.828131   29.423036
 125 Q     0.6645    0     0.000   24.207392   12.056453   27.949050
 126 Q    -1.3290    0     0.000   25.379022   10.960412   28.232508
 127 Q     0.6645    0     0.000    6.443966   18.273652   15.363473
 128 Q     0.6645    0     0.000    8.088028   18.613802   12.944624
 129 Q    -1.3290    0     0.000    7.823466   18.273652   14.494199
 130 Q     0.6645    0     0.000   22.166488    2.966870   14.210741
 131 Q     0.6645    0     0.000   24.736515    2.343260   15.457960
 132 Q    -1.3290    0     0.000   23.300323    3.023562   15.363473
 133 Q     0.6645    0     0.000   16.005980   23.073556   37.775625
 134 Q     0.6645    0     0.000   17.290994   21.769645   39.835427
 135 Q    -1.3290    0     0.000   16.194953   21.864131   38.739386
 136 Q     0.6645    0     0.000   29.668700   11.999761   33.259180
 137 Q     0.6645    0     0.000   30.160029    9.032891   32.408803
 138 Q    -1.3290    0     0.000   29.328550   10.412391   32.919029
 139 Q     0.6645    0     0.000   24.358570    4.573137   28.175817
 140 Q     0.6645    0     0.000   24.075111    7.540007   28.308097
 141 Q    -1.3290    0     0.000   23.659371    5.971535   28.610454
 142 Q     0.6645    0     0.000    8.371487   24.377467   20.598015
 143 Q     0.6645    0     0.000   10.941514   23.375912   19.161823
 144 Q    -1.3290    0     0.000    9.316350   23.394810   19.690946
 145 Q     0.6645    0     0.000   33.618228   27.268748   34.506399
 146 Q     0.6645    0     0.000   35.262290   28.289200   32.371009
 147 Q    -1.3290    0     0.000   33.977276   27.608899   32.975721
 148 Q     0.6645    0     0.000    2.513336   19.350796   31.218276
 149 Q     0.6645    0     0.000    0.642507   17.952398   29.536419
 150 Q    -1.3290    0     0.000    1.738548   19.029542   29.838776
 151 Q     0.6645    0     0.000    8.636048   28.856118   32.956824
 152 Q     0.6645    0     0.000   11.300562   28.345892   32.163139
 153 Q    -1.3290    0     0.000   10.223418   28.780529   33.202488
 154 Q     0.6645    0     0.000   32.219831   18.292549   12.509987
 155 Q     0.6645    0     0.000   33.221385   16.383926   14.305227
 156 Q    -1.3290    0     0.000   32.125344   17.366583   13.681617
 157 Q     0.6645    0     0.000   27.590002   32.937927   33.051310
 158 Q     0.6645    0     0.000   27.306543   30.008851   33.278077
 159 Q    -1.3290    0     0.000   27.986844   31.463940   33.504844
 160 Q     0.6645    0     0.000    9.240761   30.897022   28.213611
 161 Q     0.6645    0     0.000    8.371487   33.863892   28.478173
 162 Q    -1.3290    0     0.000    9.391939   32.559981   28.232508
 163 Q     0.6645    0     0.000   18.292549   11.036001   23.394810
 164 Q     0.6645    0     0.000   17.895706    8.862816   25.567995
 165 Q    -1.3290    0     0.000   18.160268   10.393494   24.906590
 166 Q     0.6645    0     0.000    4.289678   16.157158    7.124268
 167 Q     0.6645    0     0.000    4.875493   14.683172    9.637603
 168 Q    -1.3290    0     0.000    3.892836   15.382371    8.560459
 169 Q     0.6645    0     0.000   17.782323   10.015549    8.919507
 170 Q     0.6645    0     0.000   19.256309   11.376151    7.105370
 171 Q    -1.3290    0     0.000   19.029542   10.166727    8.069131
 172 Q     0.6645    0     0.000   29.536419    9.675398   23.451501
 173 Q     0.6645    0     0.000   31.615118    9.089583   21.637364
 174 Q    -1.3290    0     0.000   30.689152    8.730535   22.827892
 175 Q     0.6645    0     0.000   21.618467    5.385719    4.969980
 176 Q     0.6645    0     0.000   20.635809    7.199857    6.727425
 177 Q    -1.3290    0     0.000   21.580672    5.971535    6.368377
 178 Q     0.6645    0     0.000   33.769406    8.541562   18.103576
 179 Q     0.6645    0     0.000   31.067098    9.618706   18.122474
 180 Q    -1.3290    0     0.000   32.578879    9.543117   18.519316
 181 Q     0.6645    0     0.000   17.631145   16.969741   35.715824
 182 Q     0.6645    0     0.000   16.213850   19.256309   36.396125
 183 Q    -1.3290    0     0.000   16.780768   18.198063   35.375673
 184 Q     0.6645    0     0.000   -0.113384   19.690946   22.922378
 185 Q     0.6645    0     0.000    2.702308   18.500419   23.016864
 186 Q    -1.3290    0     0.000    1.341706   19.199618   22.374357
 187 Q     0.6645    0     0.000   14.097357    4.327473   12.075350
 188 Q     0.6645    0     0.000   13.681617    6.236096   10.223418
[...]
 356   Q   :    0.234750170    0.172765091   -0.140834865
 357   Q   :    0.075099182   -0.239262324    0.161012086
 358   Q   :   -0.303827301    0.075059043   -0.016636271
 359   Q   :   -0.204018261    0.184334652    0.144189032
 360   Q   :    0.211616459    0.089095077   -0.124960162
 361   Q   :   -0.015144810   -0.257814274   -0.025896212
 362   Q   :   -0.234911312   -0.186939296    0.036260698
 363   Q   :    0.230318225   -0.069024059   -0.113408609
 364   Q   :    0.003162762    0.247173573    0.063272086
 365   Q   :   -0.055141369    0.194719913   -0.144531959
 366   Q   :    0.151338617   -0.238111684   -0.055411797
 367   Q   :   -0.092572422    0.035371891    0.200516707
 368   Q   :    0.197941865   -0.089580768   -0.134382387
 369   Q   :   -0.040606895    0.134172204    0.215067866
 370   Q   :   -0.158745531   -0.043206425   -0.077769274
 371   Q   :   -0.276168347   -0.054293193   -0.009642019
 372   Q   :    0.085320817    0.211989969    0.169697378
 373   Q   :    0.192687591   -0.159352074   -0.160302736
 374   Q   :   -0.007561090    0.137203230   -0.290652683
 375   Q   :   -0.248139981    0.065522024    0.202304225
 376   Q   :    0.255162136   -0.203781114    0.090511336
 377   Q   :    0.053431517    0.168086108   -0.241237421
 378   Q   :   -0.228595847   -0.167587146    0.047955438
 379   Q   :    0.172132425    0.004735088    0.185296721
 380   Q   :    0.229082165    0.017256044    0.128825236
 381   Q   :   -0.255778215   -0.140385054    0.077487324
 382   Q   :    0.024051548    0.126742187   -0.216128588
 383   Q   :    0.203739882    0.083891195   -0.233570137
 384   Q   :    0.018296265   -0.229653590    0.139275095
 385   Q   :   -0.233187109    0.150025664    0.089273205
 386   Q   :   -0.139972415   -0.200794282   -0.085838002
 387   Q   :    0.229231877    0.093848216   -0.091328270
 388   Q   :   -0.081164658    0.108419209    0.171996654
 389   Q   :   -0.219622320    0.034041250   -0.172684574
 390   Q   :    0.027436136   -0.098018883    0.257453758
 391   Q   :    0.207006947    0.056896715   -0.087258561
 392   Q   :   -0.178467696    0.188066149    0.049025123
 393   Q   :    0.029233531   -0.228693429    0.140469031
 394   Q   :    0.171211934    0.045344936   -0.183687042
 395   Q   :   -0.159887968   -0.034182380    0.199249511
 396   Q   :   -0.085216242    0.053722232   -0.245594341
 397   Q   :    0.238893344   -0.020844592    0.035160327
 398   Q   :    0.069270485   -0.146379020   -0.212005726
 399   Q   :   -0.199480329    0.187179883    0.023087535
 400   Q   :    0.122011596   -0.043858625    0.191539166
 401   Q   :   -0.001708577   -0.090402844   -0.248224560
 402   Q   :    0.096061380   -0.157665835    0.207203848
 403   Q   :   -0.102624451    0.239047332    0.032723878
 404   Q   :   -0.070623321    0.271176490   -0.042439197
 405   Q   :   -0.128384332   -0.216951115    0.007841322
 406   Q   :    0.199734570   -0.048043409    0.031223990
 407   Q   :   -0.091400240    0.032522185    0.266840548
 408   Q   :    0.140905559   -0.256657588   -0.096048354
 409   Q   :   -0.037418107    0.214949152   -0.168157878
 410   Q   :   -0.251950993   -0.058266240    0.106568733
 411   Q   :    0.097127119   -0.101607665   -0.253000033
 412   Q   :    0.150955748    0.157696735    0.148072117
 413   Q   :    0.045836184    0.283638515   -0.005353670
 414   Q   :   -0.062791317   -0.150484814   -0.180276185
 415   Q   :    0.024935944   -0.123711170    0.182613172
 416   Q   :    0.044509454    0.281102615    0.004504831
 417   Q   :    0.107757996   -0.167349754   -0.158217342
 418   Q   :   -0.159386862   -0.114170098    0.166671902
 419   Q   :    0.120454317    0.145892891   -0.222905921
 420   Q   :    0.155335309   -0.188930136    0.157750524
 421   Q   :   -0.262481214    0.048770327    0.059923055
 422   Q   :   -0.225602585   -0.172679607    0.122613286
 423   Q   :    0.243530509   -0.100868630   -0.114957597
 424   Q   :   -0.024998118    0.265026867   -0.009362668
 425   Q   :    0.178745774    0.224781958   -0.074573872
 426   Q   :    0.107872955   -0.224060155    0.138408588
 427   Q   :   -0.282498333    0.011462830   -0.058177334
 428   Q   :    0.207274972    0.052174279    0.168198320
 429   Q   :   -0.205172314   -0.168288750    0.033136232
 430   Q   :   -0.007624540    0.104575613   -0.197330943
 431   Q   :    0.186996952    0.099192261    0.204084778
 432   Q   :   -0.222518454   -0.155987631    0.050282941
 433   Q   :    0.040205841    0.064073894   -0.258392121
 434   Q   :    0.254997999   -0.130790586    0.107857062
 435   Q   :   -0.116560940   -0.061210331   -0.220708702
 436   Q   :   -0.144229338    0.198309277    0.118742193
 437   Q   :   -0.214938860    0.150580551   -0.086790143
 438   Q   :    0.263246605    0.070599731    0.038557805
 439   Q   :   -0.045996055   -0.209205898    0.052801039
 440   Q   :   -0.214062037   -0.210760973    0.091800905
 441   Q   :    0.029267577    0.065740423   -0.289373849
 442   Q   :    0.182211128    0.142297977    0.193897080
 443   Q   :    0.078959796   -0.238208256    0.143277164
 444   Q   :   -0.215657891    0.017723011   -0.154366233
 445   Q   :    0.145787618    0.215312898    0.022822927
 446   Q   :   -0.275138301    0.063116084   -0.073305575
 447   Q   :    0.261611993    0.129574638   -0.114849965
 448   Q   :    0.019187670   -0.190405494    0.180425997
 449   Q   :   -0.106064817   -0.191008520    0.172174148
 450   Q   :    0.143179058    0.226515909    0.067721258
 451   Q   :   -0.034522093   -0.038155150   -0.240410395
 452   Q   :    0.020784003    0.136798133   -0.260507395
 453   Q   :    0.211594671   -0.014228303    0.218253733
 454   Q   :   -0.222176587   -0.131309637    0.051223266
 455   Q   :   -0.287230141   -0.090935802   -0.001913849
 456   Q   :    0.200902661   -0.141317234    0.193581431
 457   Q   :    0.084048820    0.233043457   -0.191802157
 458   Q   :    0.086279547   -0.139124706    0.234527567
 459   Q   :   -0.250324472    0.009653212   -0.100667682
 460   Q   :    0.169044752    0.137166353   -0.143737339
 461   Q   :    0.087487443   -0.215934448    0.125866019
 462   Q   :   -0.269869724    0.128081484    0.057044596
 463   Q   :    0.175663654    0.097725638   -0.172887679
 464   Q   :   -0.136095613   -0.207606162    0.148740251
 465   Q   :    0.032158549    0.010768010   -0.298509449
 466   Q   :    0.106083799    0.194296037    0.148956454
 467   Q   :    0.002412864    0.257217037    0.097654645
 468   Q   :    0.203008903   -0.211500532    0.056093692
 469   Q   :   -0.203278771   -0.047845594   -0.152302756
 470   Q   :    0.091834600    0.196393978   -0.198392079
 471   Q   :   -0.119262447   -0.234518698   -0.062764196
 472   Q   :    0.026740956    0.042110874    0.259071293
 473   Q   :   -0.155940041   -0.195745796   -0.099096287
 474   Q   :    0.194137652   -0.018295934    0.165043859
 475   Q   :   -0.039626618    0.195325396   -0.071493931
 476   Q   :    0.227142361    0.145873696    0.067898603
 477   Q   :   -0.079322058   -0.258187423    0.176759142
 478   Q   :   -0.151743466    0.108212525   -0.234866261
 479   Q   :   -0.181762999   -0.143854902    0.234300679
 480   Q   :    0.186245995    0.171576376    0.093672999
 481   Q   :   -0.013200696   -0.033508193   -0.328817851
 482   Q   :   -0.164497112    0.006635088    0.181740751
 483   Q   :   -0.024379442   -0.086837540   -0.237649628
 484   Q   :    0.181342696    0.076231917    0.064505571
 485   Q   :    0.234758084    0.034233560   -0.186220294
 486   Q   :   -0.030358670    0.123198186    0.279874268
 487   Q   :   -0.198668694   -0.155168745   -0.088395786
 488   Q   :    0.033277650    0.207646378    0.158584034
 489   Q   :    0.087821913   -0.201686144   -0.007658876
 490   Q   :   -0.120760967    0.003203331   -0.146440270
 491   Q   :   -0.065797178    0.287989020    0.005000673
 492   Q   :   -0.102536080   -0.176949236   -0.173377668
 493   Q   :    0.165231022   -0.102489026    0.166639730
 494   Q   :   -0.095303837    0.150850528   -0.231477610
 495   Q   :    0.244531324    0.116308239    0.180707685
 496   Q   :   -0.144275990   -0.274910310    0.058790212
 497   Q   :   -0.084901382   -0.048073410   -0.235166850
 498   Q   :   -0.033051004    0.254964099    0.150837865
 499   Q   :    0.113550793   -0.203021180    0.096889598
 500   Q   :   -0.029662579    0.265731190   -0.090041102
 501   Q   :   -0.091342272   -0.232664595   -0.109634282
 502   Q   :    0.121170566   -0.026653834    0.192048499
 503   Q   :   -0.073855746   -0.101177713   -0.218887615
 504   Q   :    0.206936975    0.117321973    0.061005567
 505   Q   :   -0.124019550   -0.020520662    0.158421862
 506   Q   :   -0.167912592   -0.046503384   -0.186141882
 507   Q   :   -0.032357292    0.128279665    0.253795287
 508   Q   :    0.208425193   -0.082987775   -0.045602382
 509   Q   :    0.040814272   -0.249095843    0.098261886
 510   Q   :   -0.006102435    0.065457739   -0.306277911
 511   Q   :   -0.043780407    0.189647792    0.211196956
 512   Q   :    0.209506452    0.194152995    0.084080826
 513   Q   :    0.029620502   -0.216069618   -0.190050590
 514   Q   :   -0.246967411    0.019058284    0.103050852
 515   Q   :   -0.140109691    0.215665541   -0.120602646
 516   Q   :   -0.119150509   -0.153935345    0.152392777
 517   Q   :    0.255203666   -0.053548441   -0.038035468
 518   Q   :   -0.162337391   -0.069866362    0.184566845
 519   Q   :    0.201993131    0.160121709    0.003430952
 520   Q   :   -0.040437532   -0.096768690   -0.206473445
 521   Q   :   -0.004815780    0.320943602   -0.004734928
 522   Q   :    0.191358764   -0.128282881   -0.152220000
 523   Q   :   -0.191077907   -0.185135215    0.157496488
 524   Q   :    0.040116533    0.177693141    0.205654235
 525   Q   :    0.004609473    0.055559590   -0.278390242
 526   Q   :   -0.038675991   -0.229651683    0.075351009
 527   Q   :    0.135384398   -0.098855291    0.229251301
 528   Q   :   -0.223542677    0.086518450   -0.024298412
 529   Q   :    0.103592072    0.012523623   -0.209696011
 530   Q   :   -0.218752523    0.104319494   -0.145641876
 531   Q   :    0.228782559    0.179197068    0.093976963
 532   Q   :   -0.004938207   -0.281184186    0.048613889
 533   Q   :   -0.284926559    0.082099086    0.090705462
 534   Q   :   -0.001507801   -0.229481014   -0.204449954
 535   Q   :    0.276274281    0.156359388    0.108857697
 536   Q   :   -0.198615912    0.074687585   -0.142793686
 537   Q   :    0.197097285    0.174177512    0.137233506
 538   Q   :    0.019236826   -0.247911716   -0.002003073
 539   Q   :   -0.109659801   -0.037088236    0.256181370
 540   Q   :    0.157019166    0.194955507   -0.078823096
 541   Q   :   -0.055493412   -0.148510060   -0.179867563
 542   Q   :    0.193595259   -0.178092487    0.025265590
 543   Q   :   -0.245345331   -0.019625730   -0.022841417
 544   Q   :    0.061064192    0.192075975   -0.008867516
 545   Q   :    0.082001308    0.144472536   -0.239315844
 546   Q   :   -0.259593701   -0.070331811    0.070088028
 547   Q   :    0.184432840   -0.072481708    0.164482774
 548   Q   :   -0.025136219   -0.179369405   -0.203848222
 549   Q   :    0.043679329   -0.043510265    0.246070770
 550   Q   :   -0.011638109    0.216350556   -0.029558916
 551   Q   :   -0.204216915    0.128768171    0.032428516
 552   Q   :    0.103110994   -0.115458974   -0.221919377
 553   Q   :    0.106425877   -0.017769775    0.175626895
 554   Q   :    0.138291693    0.189563846   -0.154923463
 555   Q   :    0.061250223   -0.234395325    0.071863588
 556   Q   :   -0.202796684    0.040809702    0.080989865
 557   Q   :    0.064784612   -0.173292047   -0.219022602
 558   Q   :   -0.252371462   -0.048139542    0.154221998
 559   Q   :    0.180046888    0.217695753    0.054931321
 560   Q   :   -0.117287393    0.014525490   -0.272280953
 561   Q   :   -0.111280651   -0.167598610    0.205355663
 562   Q   :    0.225388518    0.145315117    0.072757010
 563   Q   :    0.152259532   -0.116276036   -0.208753806
 564   Q   :    0.084488065    0.189642284    0.177564981
 565   Q   :   -0.228057226   -0.071811751    0.026515499
 566   Q   :   -0.011330959   -0.044581273    0.239537559
 567   Q   :   -0.060361837   -0.140442877   -0.221967767
 568   Q   :    0.058637432    0.178584167   -0.031193498
 569   Q   :    0.090733337    0.255171807    0.062913917
 570   Q   :   -0.284052963   -0.120199796    0.082219735
 571   Q   :    0.190418981   -0.123608838   -0.151247705
 572   Q   :    0.235975502    0.055324586    0.015455723
 573   Q   :   -0.124863245   -0.215224484   -0.091626271
 574   Q   :   -0.102798375    0.150803034    0.079126478
 575   Q   :    0.005826808   -0.213735399   -0.158544541
 576   Q   :   -0.131772202    0.041801408    0.225875452
 577   Q   :    0.131219300    0.176035784   -0.075461517
 578   Q   :    0.033615118   -0.251198688    0.088934257
 579   Q   :    0.121987607    0.225394120    0.077487583
 580   Q   :   -0.164208239    0.024290916   -0.161879121
 581   Q   :    0.017239777    0.277140883   -0.049412775
 582   Q   :   -0.195952568   -0.165304512   -0.131101692
 583   Q   :    0.175386994   -0.113006940    0.191293577
 584   Q   :    0.226581422    0.151990909   -0.101598110
 585   Q   :   -0.266535891    0.060047955   -0.073398354
 586   Q   :    0.037470986   -0.213989563    0.180596328
 587   Q   :    0.084931857   -0.233009229   -0.102878073
 588   Q   :   -0.243774578    0.095093635    0.062935892
 589   Q   :    0.144119306    0.143811443    0.038857933
 590   Q   :   -0.290928677   -0.052962958   -0.109065986
 591   Q   :    0.087277218    0.077406962    0.234984681
 592   Q   :    0.197519320   -0.037142420   -0.122475557
 593   Q   :   -0.260098770   -0.153523046   -0.008544233
 594   Q   :    0.246207836   -0.123837913   -0.125747490
 595   Q   :    0.026408824    0.268220572    0.137884878
 596   Q   :   -0.089567510    0.227967215    0.145189953
 597   Q   :   -0.064516394   -0.085766644   -0.237406734
 598   Q   :    0.145772691   -0.133650125    0.090644235
 599   Q   :    0.051312588    0.203164173   -0.184319497
 600   Q   :   -0.261072143   -0.097449245    0.031728316
 601   Q   :    0.209970418   -0.098256299    0.153446692
 602   Q   :   -0.176036170    0.172051416    0.131378721
 603   Q   :    0.204201337   -0.185724416    0.135135049
 604   Q   :   -0.021754940    0.012924823   -0.261460713
 605   Q   :   -0.016650312   -0.034264584    0.273188548
 606   Q   :    0.114607043    0.296635991   -0.125140080
 607   Q   :   -0.103557087   -0.245507434   -0.144490615
 608   Q   :    0.195941832   -0.187102027   -0.109424182
 609   Q   :   -0.006750668    0.291682157   -0.115492117
 610   Q   :   -0.185194586   -0.097224697    0.233695608
 611   Q   :    0.142567783    0.029744012   -0.229244685
 612   Q   :    0.069887192   -0.151766196    0.177650125
 613   Q   :   -0.219551275    0.128556439    0.037660901
 614   Q   :    0.045464655    0.299296267   -0.074583240
 615   Q   :    0.195511286   -0.212365119   -0.114893641
 616   Q   :   -0.237543443   -0.091467558    0.185884546
 617   Q   :    0.194892686   -0.010546788    0.183327872
 618   Q   :    0.041811386    0.002859698   -0.273828821
 619   Q   :   -0.232877750    0.000454810    0.090980273
 620   Q   :    0.072169281    0.174516661   -0.233587620
 621   Q   :    0.198598391   -0.184457621    0.123669887
 622   Q   :   -0.269848020    0.010176406    0.108687229
 623   Q   :    0.112922584    0.229715415    0.164355451
 624   Q   :   -0.235841070   -0.050792309   -0.065277544
 625   Q   :    0.123462152   -0.172755104   -0.089895202
 626   Q   :   -0.161219018   -0.023853324   -0.221243865
 627   Q   :    0.133804226   -0.183821499    0.125708600
 628   Q   :    0.005971897    0.209994979    0.094644041
 629   Q   :   -0.049872185    0.289699740   -0.034476136
 630   Q   :    0.220823098   -0.123760155   -0.097987070
 631   Q   :   -0.169582467   -0.174378207    0.126539049
 632   Q   :   -0.176495282   -0.063037705    0.227191466
 633   Q   :    0.035916437    0.244078038   -0.101459068
 634   Q   :    0.154761210   -0.174503668   -0.116907200
 635   Q   :    0.063119089    0.299432989   -0.026900728
 636   Q   :   -0.137237106   -0.137680919   -0.175242710
 637   Q   :    0.080274056   -0.156435261    0.206732530
 638   Q   :   -0.215099330   -0.134763294   -0.116588450
 639   Q   :    0.037129371    0.264210326   -0.019126389
 640   Q   :    0.173126120   -0.126896816    0.144749079
 641   Q   :    0.212865547   -0.030691348    0.180475641
 642   Q   :   -0.166158062    0.206726161   -0.004333705
 643   Q   :   -0.036143037   -0.168366529   -0.184240772
 644   Q   :    0.043261388   -0.127165060    0.251820340
 645   Q   :    0.099622431    0.259710784   -0.072382478
 646   Q   :   -0.138933741   -0.127971297   -0.182929448

Difference to translation invariance:
           :    0.0005270110   -0.0007433186    0.0003384911

Difference to rotation invariance:
           :    0.0210289965    0.0028056884   -0.0267105231

Norm of the cartesian gradient     ...    6.3996276063
RMS gradient                       ...    0.1453710130
MAX gradient                       ...    0.3288178510

-------
TIMINGS
-------

Total SCF gradient time            ...      162.822 sec

One electron gradient       ....      23.653 sec  ( 14.5%)
RI-J Coulomb gradient       ....       8.713 sec  (  5.4%)
COSX gradient               ....      97.900 sec  ( 60.1%)
XC gradient                 ....      13.620 sec  (  8.4%)

Maximum memory used throughout the entire SCFGRAD-calculation: 680.2 MB

                            ***************************************
                            *     ORCA property calculations      *
                            ***************************************

                                    ---------------------
                                    Active property flags
                                    ---------------------
   (+) Dipole Moment


------------------------------------------------------------------------------
                       ORCA ELECTRIC PROPERTIES CALCULATION
------------------------------------------------------------------------------

Dipole Moment Calculation                       ... on
Quadrupole Moment Calculation                   ... off
Polarizability Calculation                      ... off
GBWName                                         ... final005.orca.gbw
Electron density                                ... final005.orca.scfp
The origin for moment calculation is the CENTER OF MASS  = (19.528831, 20.146144 22.818608)

-------------
DIPOLE MOMENT
-------------
                                X             Y             Z
Electronic contribution:     -0.59147       2.36282       0.64294
Nuclear contribution   :     -5.78074      -6.32634      -7.28956
                        -----------------------------------------
Total Dipole Moment    :     -6.37221      -3.96352      -6.64662
                        -----------------------------------------
Magnitude (a.u.)       :     10.02457
Magnitude (Debye)      :     25.48044



--------------------
Rotational spectrum 
--------------------
 
Rotational constants in cm-1:     0.002000     0.001634     0.001422 
Rotational constants in MHz :    59.945519    48.977268    42.636138 

 Dipole components along the rotational axes: 
x,y,z [a.u.] :    -7.213856     6.950130    -0.384731 
x,y,z [Debye]:   -18.336165    17.665826    -0.977907 

 

Timings for individual modules:

Sum of individual times         ...      698.314 sec (=  11.639 min)
GTO integral calculation        ...       12.284 sec (=   0.205 min)   1.8 %
SCF iterations                  ...      518.829 sec (=   8.647 min)  74.3 %
SCF Gradient evaluation         ...      167.201 sec (=   2.787 min)  23.9 %
                             ****ORCA TERMINATED NORMALLY****
TOTAL RUN TIME: 0 days 0 hours 11 minutes 45 seconds 798 msec
