
                                 *****************
                                 * O   R   C   A *
                                 *****************

                                            #,                                       
                                            ###                                      
                                            ####                                     
                                            #####                                    
                                            ######                                   
                                           ########,                                 
                                     ,,################,,,,,                         
                               ,,#################################,,                 
                          ,,##########################################,,             
                       ,#########################################, ''#####,          
                    ,#############################################,,   '####,        
                  ,##################################################,,,,####,       
                ,###########''''           ''''###############################       
              ,#####''   ,,,,##########,,,,          '''####'''          '####       
            ,##' ,,,,###########################,,,                        '##       
           ' ,,###''''                  '''############,,,                           
         ,,##''                                '''############,,,,        ,,,,,,###''
      ,#''                                            '''#######################'''  
     '                                                          ''''####''''         
             ,#######,   #######,   ,#######,      ##                                
            ,#'     '#,  ##    ##  ,#'     '#,    #''#        ######   ,####,        
            ##       ##  ##   ,#'  ##            #'  '#       #        #'  '#        
            ##       ##  #######   ##           ,######,      #####,   #    #        
            '#,     ,#'  ##    ##  '#,     ,#' ,#      #,         ##   #,  ,#        
             '#######'   ##     ##  '#######'  #'      '#     #####' # '####'        



                  #######################################################
                  #                        -***-                        #
                  #          Department of theory and spectroscopy      #
                  #    Directorship and core code : Frank Neese         #
                  #        Max Planck Institute fuer Kohlenforschung    #
                  #                Kaiser Wilhelm Platz 1               #
                  #                 D-45470 Muelheim/Ruhr               #
                  #                      Germany                        #
                  #                                                     #
                  #                  All rights reserved                #
                  #                        -***-                        #
                  #######################################################


                         Program Version 5.0.3 -  RELEASE  -


 With contributions from (in alphabetic order):
   Daniel Aravena         : Magnetic Suceptibility
   Michael Atanasov       : Ab Initio Ligand Field Theory (pilot matlab implementation)
   Alexander A. Auer      : GIAO ZORA, VPT2 properties, NMR spectrum
   Ute Becker             : Parallelization
   Giovanni Bistoni       : ED, misc. LED, open-shell LED, HFLD
   Martin Brehm           : Molecular dynamics
   Dmytro Bykov           : SCF Hessian
   Vijay G. Chilkuri      : MRCI spin determinant printing, contributions to CSF-ICE
   Dipayan Datta          : RHF DLPNO-CCSD density
   Achintya Kumar Dutta   : EOM-CC, STEOM-CC
   Dmitry Ganyushin       : Spin-Orbit,Spin-Spin,Magnetic field MRCI
   Miquel Garcia          : C-PCM and meta-GGA Hessian, CC/C-PCM, Gaussian charge scheme
   Yang Guo               : DLPNO-NEVPT2, F12-NEVPT2, CIM, IAO-localization
   Andreas Hansen         : Spin unrestricted coupled pair/coupled cluster methods
   Benjamin Helmich-Paris : MC-RPA, TRAH-SCF, COSX integrals
   Lee Huntington         : MR-EOM, pCC
   Robert Izsak           : Overlap fitted RIJCOSX, COSX-SCS-MP3, EOM
   Marcus Kettner         : VPT2
   Christian Kollmar      : KDIIS, OOCD, Brueckner-CCSD(T), CCSD density, CASPT2, CASPT2-K
   Simone Kossmann        : Meta GGA functionals, TD-DFT gradient, OOMP2, MP2 Hessian
   Martin Krupicka        : Initial AUTO-CI
   Lucas Lang             : DCDCAS
   Marvin Lechner         : AUTO-CI (C++ implementation), FIC-MRCC
   Dagmar Lenk            : GEPOL surface, SMD
   Dimitrios Liakos       : Extrapolation schemes; Compound Job, initial MDCI parallelization
   Dimitrios Manganas     : Further ROCIS development; embedding schemes
   Dimitrios Pantazis     : SARC Basis sets
   Anastasios Papadopoulos: AUTO-CI, single reference methods and gradients
   Taras Petrenko         : DFT Hessian,TD-DFT gradient, ASA, ECA, R-Raman, ABS, FL, XAS/XES, NRVS
   Peter Pinski           : DLPNO-MP2, DLPNO-MP2 Gradient
   Christoph Reimann      : Effective Core Potentials
   Marius Retegan         : Local ZFS, SOC
   Christoph Riplinger    : Optimizer, TS searches, QM/MM, DLPNO-CCSD(T), (RO)-DLPNO pert. Triples
   Tobias Risthaus        : Range-separated hybrids, TD-DFT gradient, RPA, STAB
   Michael Roemelt        : Original ROCIS implementation
   Masaaki Saitow         : Open-shell DLPNO-CCSD energy and density
   Barbara Sandhoefer     : DKH picture change effects
   Avijit Sen             : IP-ROCIS
   Kantharuban Sivalingam : CASSCF convergence, NEVPT2, FIC-MRCI
   Bernardo de Souza      : ESD, SOC TD-DFT
   Georgi Stoychev        : AutoAux, RI-MP2 NMR, DLPNO-MP2 response
   Willem Van den Heuvel  : Paramagnetic NMR
   Boris Wezisla          : Elementary symmetry handling
   Frank Wennmohs         : Technical directorship


 We gratefully acknowledge several colleagues who have allowed us to
 interface, adapt or use parts of their codes:
   Stefan Grimme, W. Hujo, H. Kruse, P. Pracht,  : VdW corrections, initial TS optimization,
                  C. Bannwarth, S. Ehlert          DFT functionals, gCP, sTDA/sTD-DF
   Ed Valeev, F. Pavosevic, A. Kumar             : LibInt (2-el integral package), F12 methods
   Garnet Chan, S. Sharma, J. Yang, R. Olivares  : DMRG
   Ulf Ekstrom                                   : XCFun DFT Library
   Mihaly Kallay                                 : mrcc  (arbitrary order and MRCC methods)
   Jiri Pittner, Ondrej Demel                    : Mk-CCSD
   Frank Weinhold                                : gennbo (NPA and NBO analysis)
   Christopher J. Cramer and Donald G. Truhlar   : smd solvation model
   Lars Goerigk                                  : TD-DFT with DH, B97 family of functionals
   V. Asgeirsson, H. Jonsson                     : NEB implementation
   FAccTs GmbH                                   : IRC, NEB, NEB-TS, DLPNO-Multilevel, CI-OPT
                                                   MM, QMMM, 2- and 3-layer-ONIOM, Crystal-QMMM,
                                                   LR-CPCM, SF, NACMEs, symmetry and pop. for TD-DFT,
                                                   nearIR, NL-DFT gradient (VV10), updates on ESD,
                                                   ML-optimized integration grids
   S Lehtola, MJT Oliveira, MAL Marques          : LibXC Library
   Liviu Ungur et al                             : ANISO software


 Your calculation uses the libint2 library for the computation of 2-el integrals
 For citations please refer to: http://libint.valeyev.net

 Your ORCA version has been built with support for libXC version: 5.1.0
 For citations please refer to: https://tddft.org/programs/libxc/

 This ORCA versions uses:
   CBLAS   interface :  Fast vector & matrix operations
   LAPACKE interface :  Fast linear algebra routines
   SCALAPACK package :  Parallel linear algebra routines
   Shared memory     :  Shared parallel matrices
   BLAS/LAPACK       :  OpenBLAS 0.3.15  USE64BITINT DYNAMIC_ARCH NO_AFFINITY SkylakeX SINGLE_THREADED
        Core in use  :  SkylakeX
   Copyright (c) 2011-2014, The OpenBLAS Project


================================================================================

----- Orbital basis set information -----
Your calculation utilizes the basis: def2-SVP
   F. Weigend and R. Ahlrichs, Phys. Chem. Chem. Phys. 7, 3297 (2005).

The basis set includes element-specific modifications.

Your calculation utilizes the basis: aug-cc-pVTZ 
    H, B-Ne : Obtained from the ccRepo (grant-hill.group.shef.ac.uk/ccrepo) Feb. 2017
              R. A. Kendall, T. H. Dunning, Jr., R. J. Harrison, J. Chem. Phys. 96, 6796 (1992)
         He : Obtained from the ccRepo (grant-hill.group.shef.ac.uk/ccrepo) Feb. 2017
              D. E. Woon, T. H. Dunning, Jr., J. Chem. Phys. 100, 2975 (1994)
  Li-Be, Na : Obtained from the ccRepo (grant-hill.group.shef.ac.uk/ccrepo) Feb. 2017
              B. P. Prascher, D. E. Woon, K. A. Peterson, T. H. Dunning, Jr., A. K. Wilson, Theor. Chem. Acc. 128, 69 (2011)
         Mg : Obtained from the Peterson Research Group Website (tyr0.chem.wsu.edu/~kipeters) Feb. 2017
              B. P. Prascher, D. E. Woon, K. A. Peterson, T. H. Dunning, Jr., A. K. Wilson, Theor. Chem. Acc. 128, 69 (2011)
      Al-Ar : Obtained from the ccRepo (grant-hill.group.shef.ac.uk/ccrepo) Feb. 2017
              D. E. Woon, T. H. Dunning, Jr., J. Chem. Phys. 98, 1358 (1993)
      Sc-Zn : Obtained from the ccRepo (grant-hill.group.shef.ac.uk/ccrepo) Feb. 2017
              N. B. Balabanov, K. A. Peterson, J. Chem. Phys. 123, 064107 (2005)
              N. B. Balabanov, K. A. Peterson, J. Chem. Phys. 125, 074110 (2006)
      Ga-Kr : Obtained from the ccRepo (grant-hill.group.shef.ac.uk/ccrepo) Feb. 2017
              A. K. Wilson, D. E. Woon, K. A. Peterson, T. H. Dunning, Jr., J. Chem. Phys. 110, 7667 (1999)
     Ag, Au : Obtained from the Peterson Research Group Website (tyr0.chem.wsu.edu/~kipeters) Feb. 2017
              K. A. Peterson, C. Puzzarini, Theor. Chem. Acc. 114, 283 (2005)

Your calculation utilizes the basis: cc-pVTZ 
       H, B-Ne : Obtained from the ccRepo (grant-hill.group.shef.ac.uk/ccrepo) Feb. 2017
                 T. H. Dunning, Jr., J. Chem. Phys. 90, 1007 (1989)
            He : Obtained from the ccRepo (grant-hill.group.shef.ac.uk/ccrepo) Feb. 2017
                 D. E. Woon, T. H. Dunning, Jr., J. Chem. Phys. 100, 2975 (1994)
  Li-Be, Na-Mg : Obtained from the ccRepo (grant-hill.group.shef.ac.uk/ccrepo) Feb. 2017
                 B. P. Prascher, D. E. Woon, K. A. Peterson, T. H. Dunning, Jr., A. K. Wilson, Theor. Chem. Acc. 128, 69 (2011)
         Al-Ar : Obtained from the ccRepo (grant-hill.group.shef.ac.uk/ccrepo) Feb. 2017
                 D. E. Woon, T. H. Dunning, Jr., J. Chem. Phys. 98, 1358 (1993)
            Ca : Obtained from the Peterson Research Group Website (tyr0.chem.wsu.edu/~kipeters) Feb. 2017
                 J. Koput, K. A. Peterson, J. Phys. Chem. 106, 9595 (2002)
         Sc-Zn : Obtained from the ccRepo (grant-hill.group.shef.ac.uk/ccrepo) Feb. 2017
                 N. B. Balabanov, K. A. Peterson, J. Chem. Phys. 123, 064107 (2005)
                 N. B. Balabanov, K. A. Peterson, J. Chem. Phys. 125, 074110 (2006)
         Ga-Kr : Obtained from the ccRepo (grant-hill.group.shef.ac.uk/ccrepo) Feb. 2017
                 A. K. Wilson, D. E. Woon, K. A. Peterson, T. H. Dunning, Jr., J. Chem. Phys. 110, 7667 (1999)
             Y : Obtained from the ccRepo (grant-hill.group.shef.ac.uk/ccrepo) Feb. 2017
                 K. A. Peterson, D. Figgen, M. Dolg, H. Stoll, J. Chem. Phys. 126, 124101 (2007)
        Ag, Au : Obtained from the Peterson Research Group Website (tyr0.chem.wsu.edu/~kipeters) Feb. 2017
                 K. A. Peterson, C. Puzzarini, Theor. Chem. Acc. 114, 283 (2005)

----- AuxJ basis set information -----
Your calculation utilizes the auxiliary basis: def2/J
   F. Weigend, Phys. Chem. Chem. Phys. 8, 1057 (2006).

================================================================================
                                        WARNINGS
                       Please study these warnings very carefully!
================================================================================

WARNING: The globally-selected AuxJ basis set is optimized for use with ECPs
         Make sure a suitable alternative is explicitly given all heavy elements (Z>36)

INFO   : the flag for use of the SHARK integral package has been found!

================================================================================
                                       INPUT FILE
================================================================================
NAME = final047.orca.inp
|  1> ! NoMOPrint PrintBasis #MINIPRINT SMALLPRINT LARGEPRINT
|  2> ! ALLPOP XYZFILE
|  3> #! BP86 3-21G   TightSCF
|  4> ! ENGRAD
|  5> ! B3LYP NormalPNO PModel #DecontractAux
|  6> #! VerySlowConv 
|  7>  %maxcore 5000
|  8>  %scf  maxiter   500  end 
|  9> 
| 10> %pal
| 11>     nprocs 32
| 12> end
| 13> 
| 14> %basis
| 15>     NewGTO O    # New basis for oxygen
| 16>         "aug-cc-pVTZ"
| 17>     end
| 18>     NewGTO C    # New basis for carbon
| 19>         "aug-cc-pVTZ"
| 20>     end
| 21>     NewGTO H    # New basis for hydrogen
| 22>         "cc-pVTZ"
| 23>     end
| 24> end
| 25> 
| 26> * xyz 0   1
| 27>   C  10.08  10.8  12.38  #1
| 28>   H  10.4  9.87  12.91  #2
| 29>   H  9.11  10.53  12.08  #3
| 30>   C  10.78  11.29  11.19  #4
| 31>   H  10.16  12.14  10.74  #5
| 32>   H  11.76  11.75  11.44  #6
| 33>   C  11.04  10.21  10.16  #7
| 34>   H  10.06  9.83  9.92  #8
| 35>   H  11.71  9.36  10.51  #9
| 36>   C  11.48  10.75  8.76  #10
| 37>   H  10.69  11.42  8.39  #11
| 38>   H  11.66  10.02  8.01  #12
| 39>   O  12.67  11.59  8.82  #13
| 40>   H  12.64  12.43  8.31  #14
| 41>   O  9.98  11.85  13.42  #15
| 42>   H  10.85  11.84  13.77  #16
| 43>   O  12.53  11.22  14.87  #17
| 44>   H  13.11  11.9  14.51  #18
| 45>   H  13.21  10.59  15.11  #19
| 46>   O  7.47  11.52  14.91  #20
| 47>   H  8.25  11.74  14.42  #21
| 48>   H  7.2  12.27  15.38  #22
| 49>   O  10.88  9.35  5.62  #23
| 50>   H  11.83  9.34  5.53  #24
| 51>   H  10.54  8.46  5.76  #25
| 52>   O  9.64  11.58  6.22  #26
| 53>   H  9.7  11.89  5.28  #27
| 54>   H  10  10.71  6.23  #28
| 55>   O  10.59  7.33  11.67  #29
| 56>   H  10.15  7.28  10.81  #30
| 57>   H  9.82  7.47  12.23  #31
| 58>   O  15.3  12.53  16.3  #32
| 59>   H  15.01  12.68  15.42  #33
| 60>   H  16.2  12.87  16.27  #34
| 61>   O  10.61  10.75  16.65  #35
| 62>   H  11.43  10.94  16.2  #36
| 63>   H  10.81  10.92  17.58  #37
| 64>   O  15.42  10.66  7.97  #38
| 65>   H  16.31  10.79  8.21  #39
| 66>   H  15.08  10.35  8.79  #40
| 67>   O  7.2  12.33  7.33  #41
| 68>   H  8.12  12.19  7.04  #42
| 69>   H  7.05  11.92  8.2  #43
| 70>   O  12.18  14.37  7.88  #44
| 71>   H  11.65  14.14  8.66  #45
| 72>   H  13.11  14.19  8.01  #46
| 73>   O  12.79  6.66  13.23  #47
| 74>   H  13.43  7.22  13.72  #48
| 75>   H  12.16  7.17  12.7  #49
| 76>   O  11.09  4.09  12.42  #50
| 77>   H  10.63  4.98  12.42  #51
| 78>   H  12.02  4.36  12.35  #52
| 79>   O  6.87  13.75  16.39  #53
| 80>   H  6.97  13.48  17.32  #54
| 81>   H  7.45  14.51  16.29  #55
| 82>   O  9.17  14.43  12.63  #56
| 83>   H  8.25  14.66  12.62  #57
| 84>   H  9.34  13.59  13.09  #58
| 85>   O  14.91  13.69  8.12  #59
| 86>   H  15.33  13.99  7.25  #60
| 87>   H  15.02  12.74  8.11  #61
| 88>   O  9.84  10.31  2.95  #62
| 89>   H  9.92  9.61  2.31  #63
| 90>   H  10.25  9.89  3.72  #64
| 91>   O  5.97  9.31  15.94  #65
| 92>   H  6.43  9.99  15.4  #66
| 93>   H  5.84  8.5  15.41  #67
| 94>   O  15.01  9.64  15.4  #68
| 95>   H  15.35  9.43  14.52  #69
| 96>   H  15.5  10.39  15.76  #70
| 97>   O  10.96  14.93  10.25  #71
| 98>   H  10.67  14.79  11.2  #72
| 99>   H  10.16  15.4  9.96  #73
|100>   O  11.31  13.69  16.59  #74
|101>   H  11.83  13.46  17.41  #75
|102>   H  10.8  12.96  16.28  #76
|103>   O  14.48  10.62  10.73  #77
|104>   H  13.88  11.09  10.16  #78
|105>   H  15.14  11.3  10.75  #79
|106>   O  9.94  6.76  6.22  #80
|107>   H  9.61  6.47  7.06  #81
|108>   H  9.24  6.54  5.55  #82
|109>   O  14.21  13.3  14.05  #83
|110>   H  14.16  14.28  14.18  #84
|111>   H  14.94  13.1  13.38  #85
|112>   O  6.95  10.83  9.86  #86
|113>   H  6.81  11.26  10.69  #87
|114>   H  6.12  10.6  9.41  #88
|115>   O  8.69  7.97  13.52  #89
|116>   H  8.5  7  13.53  #90
|117>   H  8.68  8.26  14.4  #91
|118>   O  13.86  9.79  6.04  #92
|119>   H  14.22  9.03  5.61  #93
|120>   H  14.53  10.04  6.78  #94
|121>   O  5.87  11.83  12.34  #95
|122>   H  5.75  11.7  13.3  #96
|123>   H  4.96  12.01  12.02  #97
|124>   O  9.29  6.44  8.99  #98
|125>   H  8.34  6.55  9.1  #99
|126>   H  9.41  5.51  9.23  #100
|127>   Q  0.6645  6.99$  16.43$  15.05$
|128>   Q  0.6645  6.09$  15.85$  13.96$
|129>   Q  -1.3290  6.34$  16.45$  14.53$
|130>   Q  0.6645  6.51$  7.68$  10.3$
|131>   Q  0.6645  7.08$  8.94$  9.73$
|132>   Q  -1.3290  6.83$  8.15$  9.71$
|133>   Q  0.6645  15.91$  14.47$  1.58$
|134>   Q  0.6645  15.07$  14.58$  0.16$
|135>   Q  -1.3290  15.29$  14.67$  1$
|136>   Q  0.6645  3.18$  15.47$  14.92$
|137>   Q  0.6645  2.49$  16.99$  14.76$
|138>   Q  -1.3290  2.57$  16.09$  14.76$
|139>   Q  0.6645  6.58$  13.99$  6.48$
|140>   Q  0.6645  5.47$  13.73$  5.58$
|141>   Q  -1.3290  6.08$  14.17$  5.85$
|142>   Q  0.6645  17.46$  12.04$  4.53$
|143>   Q  0.6645  18.85$  12.47$  4.55$
|144>   Q  -1.3290  18.24$  11.91$  4.67$
|145>   Q  0.6645  18.46$  10.99$  13.72$
|146>   Q  0.6645  18.54$  10.74$  12.21$
|147>   Q  -1.3290  18.49$  11.2$  12.9$
|148>   Q  0.6645  18.91$  13.42$  16.25$
|149>   Q  0.6645  18.76$  12.38$  17.14$
|150>   Q  -1.3290  18.46$  12.88$  16.63$
|151>   Q  0.6645  6.09$  7.71$  0.85$
|152>   Q  0.6645  7.52$  7.82$  1.2$
|153>   Q  -1.3290  6.9$  7.67$  0.66$
|154>   Q  0.6645  6.96$  3.51$  16.92$
|155>   Q  0.6645  5.55$  3.29$  16.29$
|156>   Q  -1.3290  6.19$  3.13$  16.8$
|157>   Q  0.6645  1.24$  11.29$  13.34$
|158>   Q  0.6645  1.82$  10.16$  12.68$
|159>   Q  -1.3290  1.65$  10.6$  13.35$
|160>   Q  0.6645  10.72$  22.48$  7.01$
|161>   Q  0.6645  11.51$  21.23$  6.86$
|162>   Q  -1.3290  10.81$  21.65$  6.9$
|163>   Q  0.6645  18.11$  13.24$  9.2$
|164>   Q  0.6645  16.74$  13.93$  9.12$
|165>   Q  -1.3290  17.38$  13.57$  9.53$
|166>   Q  0.6645  9.36$  9.4$  16.31$
|167>   Q  0.6645  7.85$  9.23$  16.21$
|168>   Q  -1.3290  8.64$  8.98$  16.27$
|169>   Q  0.6645  14.56$  9.62$  18.79$
|170>   Q  0.6645  14.36$  11.05$  19.03$
|171>   Q  -1.3290  14.73$  10.32$  19.15$
|172>   Q  0.6645  12.85$  5.13$  6.36$
|173>   Q  0.6645  11.79$  6.19$  6.66$
|174>   Q  -1.3290  12.56$  5.9$  6.55$
|175>   Q  0.6645  7.68$  17.81$  6.84$
|176>   Q  0.6645  8.05$  19.28$  7.08$
|177>   Q  -1.3290  8.18$  18.45$  7.08$
|178>   Q  0.6645  6.05$  19.99$  5.56$
|179>   Q  0.6645  5.77$  18.47$  5.79$
|180>   Q  -1.3290  5.73$  19.22$  5.37$
|181>   Q  0.6645  11.21$  18.24$  11.91$
|182>   Q  0.6645  11.08$  19.61$  11.33$
|183>   Q  -1.3290  10.89$  19$  11.86$
|184>   Q  0.6645  17.73$  18.16$  9.82$
|185>   Q  0.6645  18.87$  18.05$  8.88$
|186>   Q  -1.3290  18.38$  17.79$  9.47$
|187>   Q  0.6645  14.59$  18.11$  2.11$
|188>   Q  0.6645  14.77$  16.55$  1.8$
|189>   Q  -1.3290  14.4$  17.27$  2.03$
|190>   Q  0.6645  13.05$  6.91$  4.33$
|191>   Q  0.6645  12.2$  6.6$  3.1$
|192>   Q  -1.3290  12.9$  6.85$  3.51$
|193>   Q  0.6645  12.38$  3$  6.93$
|194>   Q  0.6645  12.61$  3.11$  5.37$
|195>   Q  -1.3290  12.68$  3.33$  6.18$
|196>   Q  0.6645  17.67$  16.17$  5.67$
|197>   Q  0.6645  19.05$  16.62$  6.17$
|198>   Q  -1.3290  18.42$  16.56$  5.62$
|199>   Q  0.6645  14.8$  9.35$  21.09$
|200>   Q  0.6645  14.41$  9.56$  22.6$
|201>   Q  -1.3290  14.32$  9.29$  21.77$
|202>   Q  0.6645  0.69$  10.29$  5.94$
|203>   Q  0.6645  1.79$  10.94$  6.79$
|204>   Q  -1.3290  1.01$  10.74$  6.6$
|205>   Q  0.6645  5.21$  6.09$  16.05$
|206>   Q  0.6645  5.01$  6.29$  14.6$
|207>   Q  -1.3290  5.45$  6.34$  15.29$
|208>   Q  0.6645  12.28$  1.22$  13.87$
|209>   Q  0.6645  11.17$  0.17$  14.31$
|210>   Q  -1.3290  11.51$  0.95$  14.11$
|211>   Q  0.6645  15$  4.7$  11.26$
|212>   Q  0.6645  15.82$  3.39$  11.2$
|213>   Q  -1.3290  15.53$  4.08$  11.54$
|214>   Q  0.6645  13.11$  7.65$  21.73$
|215>   Q  0.6645  12.1$  7.41$  20.64$
|216>   Q  -1.3290  12.49$  7.23$  21.35$
|217>   Q  0.6645  13.96$  17.38$  4.02$
|218>   Q  0.6645  13.08$  16.89$  5.11$
|219>   Q  -1.3290  13.75$  17.27$  4.81$
|220>   Q  0.6645  10.42$  20$  15.44$
|221>   Q  0.6645  10.3$  19.86$  13.79$
|222>   Q  -1.3290  10.31$  20.25$  14.6$
|223>   Q  0.6645  16.54$  10.56$  1.23$
|224>   Q  0.6645  17.72$  11.32$  0.5$
|225>   Q  -1.3290  17.02$  11.24$  0.97$
|226>   Q  0.6645  8.54$  2.65$  5.96$
|227>   Q  0.6645  7.4$  2.71$  6.98$
|228>   Q  -1.3290  8.02$  3.04$  6.53$
|229>   Q  0.6645  2.5$  15.62$  12.96$
|230>   Q  0.6645  1.59$  15.78$  11.78$
|231>   Q  -1.3290  2.34$  15.62$  12.14$
|232>   Q  0.6645  16.93$  12.31$  12.39$
|233>   Q  0.6645  16.31$  13.3$  11.5$
|234>   Q  -1.3290  16.26$  12.7$  12.07$
|235>   Q  0.6645  14.51$  1.96$  5.71$
|236>   Q  0.6645  14.19$  1.5$  4.18$
|237>   Q  -1.3290  14.33$  1.4$  5.05$
|238>   Q  0.6645  8.06$  7.38$  3.96$
|239>   Q  0.6645  9.07$  6.38$  3.41$
|240>   Q  -1.3290  8.43$  6.65$  3.88$
|241>   Q  0.6645  19.67$  7.73$  9.49$
|242>   Q  0.6645  20.11$  6.94$  8.3$
|243>   Q  -1.3290  20.08$  7.62$  8.78$
|244>   Q  0.6645  4.8$  4.65$  7.31$
|245>   Q  0.6645  3.34$  5.21$  7.7$
|246>   Q  -1.3290  3.95$  4.65$  7.5$
|247>   Q  0.6645  16.75$  17.39$  19.59$
|248>   Q  0.6645  16.6$  15.97$  19.06$
|249>   Q  -1.3290  16.34$  16.75$  19.25$
|250>   Q  0.6645  4.17$  18.1$  11.19$
|251>   Q  0.6645  3.08$  17.09$  11.01$
|252>   Q  -1.3290  3.56$  17.75$  10.78$
|253>   Q  0.6645  2.29$  10.93$  16.83$
|254>   Q  0.6645  1.77$  10.17$  15.54$
|255>   Q  -1.3290  1.92$  10.31$  16.4$
|256>   Q  0.6645  12.06$  2.45$  18.44$
|257>   Q  0.6645  12.51$  3.84$  18.22$
|258>   Q  -1.3290  12.34$  3.04$  17.97$
|259>   Q  0.6645  15.36$  18.56$  12.61$
|260>   Q  0.6645  16.43$  17.46$  12.59$
|261>   Q  -1.3290  15.76$  17.91$  12.29$
|262>   Q  0.6645  1.39$  6.59$  9.88$
|263>   Q  0.6645  0$  7.27$  9.61$
|264>   Q  -1.3290  0.85$  7.24$  9.71$
|265>   Q  0.6645  15.36$  10.19$  3.13$
|266>   Q  0.6645  14.88$  8.79$  2.77$
|267>   Q  -1.3290  15.04$  9.61$  2.6$
|268>   Q  0.6645  11.23$  10.05$  19.4$
|269>   Q  0.6645  12.02$  11.39$  19.61$
|270>   Q  -1.3290  11.36$  10.91$  19.35$
|271>   Q  0.6645  12.82$  12.92$  3.04$
|272>   Q  0.6645  14.13$  13.66$  2.52$
|273>   Q  -1.3290  13.63$  13.28$  3.13$
|274>   Q  0.6645  11.16$  3.01$  16.23$
|275>   Q  0.6645  10.54$  2.69$  14.86$
|276>   Q  -1.3290  10.6$  3.09$  15.58$
|277>   Q  0.6645  6.79$  15.95$  9.56$
|278>   Q  0.6645  5.29$  16.51$  9.66$
|279>   Q  -1.3290  5.92$  15.91$  9.63$
|280>   Q  0.6645  8.47$  17.25$  8.76$
|281>   Q  0.6645  8.48$  16.98$  10.3$
|282>   Q  -1.3290  8.48$  16.77$  9.47$
|283>   Q  0.6645  14.17$  2.29$  13.63$
|284>   Q  0.6645  13.98$  1.63$  12.33$
|285>   Q  -1.3290  14$  1.63$  13.17$
|286>   Q  0.6645  7.46$  14.33$  1.69$
|287>   Q  0.6645  7.14$  14.66$  0.29$
|288>   Q  -1.3290  7.27$  14.12$  0.91$
|289>   Q  0.6645  15.5$  4.07$  4.04$
|290>   Q  0.6645  16.76$  4.81$  4.09$
|291>   Q  -1.3290  16.1$  4.49$  4.42$
|292>   Q  0.6645  6.56$  10.81$  6.35$
|293>   Q  0.6645  6.59$  9.64$  5.36$
|294>   Q  -1.3290  6.26$  10.11$  6$
|295>   Q  0.6645  9.13$  16.1$  16.36$
|296>   Q  0.6645  7.92$  16.65$  17.25$
|297>   Q  -1.3290  8.31$  16.23$  16.57$
|298>   Q  0.6645  5.65$  16.87$  7.4$
|299>   Q  0.6645  6.22$  16.05$  6.19$
|300>   Q  -1.3290  6.13$  16.73$  6.72$
|301>   Q  0.6645  14.63$  4.21$  13.39$
|302>   Q  0.6645  13.48$  4.53$  14.4$
|303>   Q  -1.3290  14.1$  4.1$  14.08$
|304>   Q  0.6645  10.79$  4.48$  19.91$
|305>   Q  0.6645  9.41$  4.17$  19.34$
|306>   Q  -1.3290  10.05$  4.68$  19.54$
|307>   Q  0.6645  6.11$  5.62$  19.7$
|308>   Q  0.6645  6.93$  6.56$  20.72$
|309>   Q  -1.3290  6.6$  6.27$  19.94$
|310>   Q  0.6645  1.23$  9.12$  10.55$
|311>   Q  0.6645  0.81$  10.66$  10.41$
|312>   Q  -1.3290  1.31$  9.98$  10.63$
|313>   Q  0.6645  9.55$  14.95$  0.66$
|314>   Q  0.6645  10.51$  14.97$  1.89$
|315>   Q  -1.3290  10.26$  14.75$  1.11$
|316>   Q  0.6645  6.59$  6.2$  7.48$
|317>   Q  0.6645  7.27$  4.86$  7.17$
|318>   Q  -1.3290  6.68$  5.36$  7.48$
|319>   Q  0.6645  15.49$  3.54$  7.83$
|320>   Q  0.6645  14.45$  4.46$  8.14$
|321>   Q  -1.3290  15$  3.9$  8.36$
|322>   Q  0.6645  3.31$  7.21$  7.1$
|323>   Q  0.6645  2.04$  7.46$  7.87$
|324>   Q  -1.3290  2.55$  7.03$  7.38$
|325>   Q  0.6645  3.17$  5.37$  16.84$
|326>   Q  0.6645  4.06$  5.12$  18.23$
|327>   Q  -1.3290  3.88$  5.29$  17.38$
|328>   Q  0.6645  15.02$  7.9$  8.11$
|329>   Q  0.6645  13.86$  6.94$  7.71$
|330>   Q  -1.3290  14.51$  7.24$  8.19$
|331>   Q  0.6645  12.16$  16.35$  8.18$
|332>   Q  0.6645  12.15$  17.4$  7.01$
|333>   Q  -1.3290  12.4$  17.05$  7.75$
|334>   Q  0.6645  14.01$  1.16$  10.11$
|335>   Q  0.6645  14.27$  2.56$  9.57$
|336>   Q  -1.3290  13.91$  1.99$  10.07$
|337>   Q  0.6645  10.71$  15.65$  4.36$
|338>   Q  0.6645  9.26$  15.53$  3.73$
|339>   Q  -1.3290  10.06$  15.72$  3.79$
|340>   Q  0.6645  9.2$  1.03$  10.82$
|341>   Q  0.6645  7.94$  0.82$  9.92$
|342>   Q  -1.3290  8.47$  1.25$  10.42$
|343>   Q  0.6645  19.75$  15.02$  8.12$
|344>   Q  0.6645  20.21$  13.61$  7.58$
|345>   Q  -1.3290  19.89$  14.17$  8.15$
|346>   Q  0.6645  17.3$  7.99$  17.15$
|347>   Q  0.6645  16.65$  7.11$  16.09$
|348>   Q  -1.3290  17.24$  7.61$  16.42$
|349>   Q  0.6645  10.84$  18.31$  3.91$
|350>   Q  0.6645  10.55$  17.77$  2.51$
|351>   Q  -1.3290  10.57$  18.34$  3.13$
|352>   Q  0.6645  14.31$  17.44$  8.98$
|353>   Q  0.6645  15.22$  17.68$  10.27$
|354>   Q  -1.3290  15.02$  17.69$  9.44$
|355>   Q  0.6645  4.23$  9.55$  8.69$
|356>   Q  0.6645  3.6$  10.58$  9.65$
|357>   Q  -1.3290  4.22$  10.26$  9.14$
|358>   Q  0.6645  3.59$  2.66$  12.05$
|359>   Q  0.6645  4.23$  4.05$  12.35$
|360>   Q  -1.3290  3.64$  3.43$  12.39$
|361>   Q  0.6645  18.28$  11.28$  6.71$
|362>   Q  0.6645  19.01$  10.77$  8$
|363>   Q  -1.3290  18.34$  10.97$  7.51$
|364>   Q  0.6645  12.85$  5.36$  17.35$
|365>   Q  0.6645  12.36$  5.92$  18.72$
|366>   Q  -1.3290  12.91$  5.52$  18.2$
|367>   Q  0.6645  9.83$  5.49$  1.68$
|368>   Q  0.6645  10.5$  4.85$  2.97$
|369>   Q  -1.3290  10.27$  5.49$  2.43$
|370>   Q  0.6645  15.97$  13.91$  19.92$
|371>   Q  0.6645  15.35$  12.82$  20.84$
|372>   Q  -1.3290  15.35$  13.55$  20.39$
|373>   Q  0.6645  5.47$  8.69$  17.74$
|374>   Q  0.6645  5.45$  7.65$  18.86$
|375>   Q  -1.3290  5.27$  8.4$  18.52$
|376>   Q  0.6645  16.62$  3.62$  6.17$
|377>   Q  0.6645  17.67$  2.74$  6.76$
|378>   Q  -1.3290  16.87$  2.98$  6.62$
|379>   Q  0.6645  14.63$  21.28$  13.74$
|380>   Q  0.6645  14.13$  20$  14.41$
|381>   Q  -1.3290  14.58$  20.44$  13.81$
|382>   Q  0.6645  11.86$  2.6$  2.69$
|383>   Q  0.6645  11.01$  2.55$  3.96$
|384>   Q  -1.3290  11.66$  2.76$  3.48$
|385>   Q  0.6645  7.95$  9.74$  3.51$
|386>   Q  0.6645  6.56$  9.88$  3.27$
|387>   Q  -1.3290  7.19$  9.48$  3.56$
|388>   Q  0.6645  13.99$  13.3$  18.84$
|389>   Q  0.6645  13.9$  12.77$  17.44$
|390>   Q  -1.3290  13.61$  12.92$  18.21$
|391>   Q  0.6645  7.05$  18.06$  18.7$
|392>   Q  0.6645  6.35$  16.71$  18.75$
|393>   Q  -1.3290  7.01$  17.24$  18.75$
|394>   Q  0.6645  14.86$  11.24$  5.22$
|395>   Q  0.6645  14.84$  12.37$  4.29$
|396>   Q  -1.3290  15.22$  11.79$  4.72$
|397>   Q  0.6645  2.64$  4.95$  11.13$
|398>   Q  0.6645  3.78$  5.55$  10.25$
|399>   Q  -1.3290  3.05$  5.58$  10.67$
|400>   Q  0.6645  21.02$  12.97$  12.04$
|401>   Q  0.6645  20.23$  12.01$  12.84$
|402>   Q  -1.3290  20.83$  12.55$  12.71$
|403>   Q  0.6645  18.13$  9.23$  10.41$
|404>   Q  0.6645  19.45$  10.04$  10.18$
|405>   Q  -1.3290  18.86$  9.63$  10.67$
|406>   Q  0.6645  5.17$  19.74$  12.51$
|407>   Q  0.6645  6.44$  18.96$  12.07$
|408>   Q  -1.3290  5.66$  19.32$  11.97$
|409>   Q  0.6645  15.51$  5.54$  16.78$
|410>   Q  0.6645  15.14$  5.12$  15.39$
|411>   Q  -1.3290  15.36$  5.68$  16.01$
|412>   Q  0.6645  14.22$  7.29$  17.62$
|413>   Q  0.6645  14.52$  8.48$  16.67$
|414>   Q  -1.3290  14.16$  8.09$  17.36$
|415>   Q  0.6645  18.53$  16.03$  10.93$
|416>   Q  0.6645  18.7$  14.56$  10.96$
|417>   Q  -1.3290  18.81$  15.33$  11.23$
|418>   Q  0.6645  11.96$  1.97$  8.94$
|419>   Q  0.6645  10.81$  2.63$  8.36$
|420>   Q  -1.3290  11.5$  2.24$  8.3$
|421>   Q  0.6645  8.18$  16.32$  20.25$
|422>   Q  0.6645  8.98$  15$  20.24$
|423>   Q  -1.3290  8.42$  15.56$  20.55$
|424>   Q  0.6645  11.46$  4.88$  15.53$
|425>   Q  0.6645  11.81$  6.14$  14.87$
|426>   Q  -1.3290  11.87$  5.57$  15.48$
|427>   Q  0.6645  13.01$  16.83$  12.67$
|428>   Q  0.6645  12.38$  16.1$  11.51$
|429>   Q  -1.3290  12.44$  16.69$  12.11$
|430>   Q  0.6645  15.24$  15.61$  5.5$
|431>   Q  0.6645  15.98$  14.48$  4.71$
|432>   Q  -1.3290  15.68$  14.89$  5.41$
|433>   Q  0.6645  5.71$  11.88$  19.49$
|434>   Q  0.6645  5.36$  10.43$  19.06$
|435>   Q  -1.3290  5.2$  11.2$  19.39$
|436>   Q  0.6645  16$  7.53$  5.93$
|437>   Q  0.6645  15.49$  6.83$  4.58$
|438>   Q  -1.3290  15.54$  7.43$  5.21$
|439>   Q  0.6645  17.19$  7.04$  11$
|440>   Q  0.6645  15.88$  7.23$  10.24$
|441>   Q  -1.3290  16.64$  7.47$  10.52$
|442>   Q  0.6645  13.03$  17.16$  20.53$
|443>   Q  0.6645  14.22$  17.12$  19.69$
|444>   Q  -1.3290  13.43$  17.26$  19.82$
|445>   Q  0.6645  8.67$  5.17$  14.88$
|446>   Q  0.6645  7.37$  5.64$  14.64$
|447>   Q  -1.3290  8.08$  5.35$  14.4$
|448>   Q  0.6645  7.33$  20.48$  9.47$
|449>   Q  0.6645  6.06$  20.32$  10.25$
|450>   Q  -1.3290  6.55$  20.7$  9.69$
|451>   Q  0.6645  18.69$  5.71$  11.81$
|452>   Q  0.6645  17.23$  5.28$  12.02$
|453>   Q  -1.3290  17.91$  5.77$  12.08$
|454>   Q  0.6645  17.75$  10.73$  17.19$
|455>   Q  0.6645  16.83$  10.51$  18.42$
|456>   Q  -1.3290  17.51$  10.4$  17.9$
|457>   Q  0.6645  20.44$  9.15$  12.32$
|458>   Q  0.6645  21.72$  9.59$  13.21$
|459>   Q  -1.3290  20.93$  9.26$  13.04$
|460>   Q  0.6645  17.05$  6.44$  2.39$
|461>   Q  0.6645  18.38$  6.56$  3.15$
|462>   Q  -1.3290  17.62$  6.26$  2.98$
|463>   Q  0.6645  13.02$  18.18$  16.04$
|464>   Q  0.6645  14.54$  18.31$  16.35$
|465>   Q  -1.3290  13.84$  18.38$  15.88$
|466>   Q  0.6645  3.53$  12.82$  17.07$
|467>   Q  0.6645  3.69$  12.07$  18.44$
|468>   Q  -1.3290  3.29$  12.35$  17.73$
|469>   Q  0.6645  8.74$  11.51$  20.69$
|470>   Q  0.6645  8.37$  12.8$  21.58$
|471>   Q  -1.3290  8.69$  12.35$  20.91$
|472>   Q  0.6645  3.41$  11.99$  5.5$
|473>   Q  0.6645  4.25$  11.58$  6.72$
|474>   Q  -1.3290  3.72$  12.06$  6.28$
|475>   Q  0.6645  5.18$  16.13$  20.65$
|476>   Q  0.6645  4.3$  15.71$  19.55$
|477>   Q  -1.3290  5.03$  15.71$  19.94$
|478>   Q  0.6645  10.48$  3.62$  10.35$
|479>   Q  0.6645  9.28$  2.85$  9.84$
|480>   Q  -1.3290  9.88$  3.46$  9.81$
|481>   Q  0.6645  10.94$  11.62$  2.26$
|482>   Q  0.6645  10.96$  12.89$  1.3$
|483>   Q  -1.3290  11.29$  12.25$  1.83$
|484>   Q  0.6645  10.36$  18.63$  6.34$
|485>   Q  0.6645  11.71$  19.25$  5.92$
|486>   Q  -1.3290  11.12$  18.61$  5.96$
|487>   Q  0.6645  -0.06$  13.36$  9.53$
|488>   Q  0.6645  1.26$  13.36$  10.42$
|489>   Q  -1.3290  0.49$  13.13$  10.17$
|490>   Q  0.6645  11.97$  16.99$  18.33$
|491>   Q  0.6645  11.48$  16.05$  17.29$
|492>   Q  -1.3290  11.7$  16.79$  17.58$
|493>   Q  0.6645  6.22$  13.83$  12.44$
|494>   Q  0.6645  6.03$  15.12$  11.53$
|495>   Q  -1.3290  6.3$  14.67$  12.21$
|496>   Q  0.6645  13.57$  21.46$  5.86$
|497>   Q  0.6645  13.84$  20.03$  6.37$
|498>   Q  -1.3290  13.32$  20.67$  6.14$
|499>   Q  0.6645  12.24$  18.84$  8.87$
|500>   Q  0.6645  12.9$  19.82$  9.94$
|501>   Q  -1.3290  12.27$  19.47$  9.46$
|502>   Q  0.6645  19.73$  9.26$  14.47$
|503>   Q  0.6645  18.49$  8.67$  15.24$
|504>   Q  -1.3290  19.05$  9.31$  14.98$
|505>   Q  0.6645  17.57$  18.54$  5.52$
|506>   Q  0.6645  16.7$  19.78$  5.9$
|507>   Q  -1.3290  17.33$  19.35$  5.51$
|508>   Q  0.6645  8.03$  17.81$  13.04$
|509>   Q  0.6645  9$  18.59$  12.14$
|510>   Q  -1.3290  8.26$  18.19$  12.34$
|511>   Q  0.6645  15.29$  18.56$  7.6$
|512>   Q  0.6645  14.78$  18.26$  6.27$
|513>   Q  -1.3290  15.15$  18.73$  6.81$
|514>   Q  0.6645  17.31$  5.18$  8.87$
|515>   Q  0.6645  18.12$  4.93$  7.49$
|516>   Q  -1.3290  17.96$  5.22$  8.28$
|517>   Q  0.6645  7.59$  13.22$  19.59$
|518>   Q  0.6645  6.32$  14.08$  19.32$
|519>   Q  -1.3290  6.86$  13.43$  19.25$
|520>   Q  0.6645  18.04$  14.52$  19.07$
|521>   Q  0.6645  17.28$  14.16$  17.75$
|522>   Q  -1.3290  17.36$  14.49$  18.53$
|523>   Q  0.6645  9.81$  20.85$  9.62$
|524>   Q  0.6645  9.65$  20.9$  8.17$
|525>   Q  -1.3290  9.36$  20.81$  8.94$
|526>   Q  0.6645  5.14$  17.58$  15.68$
|527>   Q  0.6645  4.24$  17.85$  16.93$
|528>   Q  -1.3290  4.83$  18.03$  16.36$
|529>   Q  0.6645  18.79$  8.85$  2.76$
|530>   Q  0.6645  19.79$  8.93$  1.33$
|531>   Q  -1.3290  19.2$  8.61$  1.95$
|532>   Q  0.6645  5.75$  9.7$  12.9$
|533>   Q  0.6645  6.9$  8.57$  12.68$
|534>   Q  -1.3290  6.09$  8.89$  12.85$
|535>   Q  0.6645  14.97$  16.24$  13.76$
|536>   Q  0.6645  13.96$  16.55$  14.8$
|537>   Q  -1.3290  14.25$  16.15$  14.15$
|538>   Q  0.6645  12.46$  16.96$  0.89$
|539>   Q  0.6645  11.29$  16.38$  0.14$
|540>   Q  -1.3290  11.82$  16.99$  0.37$
|541>   Q  0.6645  3.65$  13.65$  7.85$
|542>   Q  0.6645  4.42$  14.58$  8.96$
|543>   Q  -1.3290  3.78$  14.18$  8.54$
|544>   Q  0.6645  9.03$  5.3$  17.51$
|545>   Q  0.6645  9.11$  4.12$  16.57$
|546>   Q  -1.3290  8.72$  4.75$  16.95$
|547>   Q  0.6645  6.19$  5.03$  11.25$
|548>   Q  0.6645  6.08$  5.17$  9.68$
|549>   Q  -1.3290  5.89$  5.33$  10.5$
|550>   Q  0.6645  11.94$  14.84$  6.16$
|551>   Q  0.6645  12.77$  14.76$  4.78$
|552>   Q  -1.3290  12.22$  15.06$  5.37$
|553>   Q  0.6645  21.09$  9.41$  8.75$
|554>   Q  0.6645  21.62$  10.89$  8.75$
|555>   Q  -1.3290  21.03$  10.27$  8.84$
|556>   Q  0.6645  3.39$  6.77$  12.48$
|557>   Q  0.6645  4.6$  7.59$  12.88$
|558>   Q  -1.3290  3.99$  7$  12.97$
|559>   Q  0.6645  18.03$  15.95$  12.99$
|560>   Q  0.6645  18.07$  16.62$  14.39$
|561>   Q  -1.3290  17.71$  16.21$  13.73$
|562>   Q  0.6645  4.04$  13.07$  14.93$
|563>   Q  0.6645  4.93$  13.91$  15.86$
|564>   Q  -1.3290  4.26$  13.8$  15.35$
|565>   Q  0.6645  6.96$  18.69$  4.08$
|566>   Q  0.6645  8.39$  18.49$  3.68$
|567>   Q  -1.3290  7.58$  18.34$  3.66$
|568>   Q  0.6645  5.98$  12.32$  2.53$
|569>   Q  0.6645  4.56$  11.6$  2.89$
|570>   Q  -1.3290  5.42$  11.69$  2.8$
|571>   Q  0.6645  9.79$  8.76$  -0.1$
|572>   Q  0.6645  10.64$  7.71$  0.75$
|573>   Q  -1.3290  10$  8.24$  0.56$
|574>   Q  0.6645  5.56$  5.18$  4.25$
|575>   Q  0.6645  6.99$  4.96$  3.76$
|576>   Q  -1.3290  6.16$  4.78$  3.86$
|577>   Q  0.6645  9.99$  15.95$  13.82$
|578>   Q  0.6645  11.2$  16.75$  13.59$
|579>   Q  -1.3290  10.58$  16.47$  14.04$
|580>   Q  0.6645  3.48$  13.33$  10.26$
|581>   Q  0.6645  3.12$  14.03$  11.52$
|582>   Q  -1.3290  3.43$  13.37$  11.09$
|583>   Q  0.6645  3.46$  10.73$  14.28$
|584>   Q  0.6645  4.6$  10.43$  15.28$
|585>   Q  -1.3290  4.15$  10.92$  14.72$
|586>   Q  0.6645  5.67$  7.86$  8.24$
|587>   Q  0.6645  5.18$  8.33$  6.87$
|588>   Q  -1.3290  5.19$  7.82$  7.54$
|589>   Q  0.6645  11.78$  0.38$  11.14$
|590>   Q  0.6645  11$  0.9$  12.22$
|591>   Q  -1.3290  11.06$  0.51$  11.5$
|592>   Q  0.6645  7.19$  3.97$  13.31$
|593>   Q  0.6645  6.3$  2.87$  12.64$
|594>   Q  -1.3290  6.55$  3.67$  12.82$
|595>   Q  0.6645  17.49$  7.23$  7.79$
|596>   Q  0.6645  17.45$  8.8$  7.77$
|597>   Q  -1.3290  17.29$  8.01$  7.51$
|598>   Q  0.6645  7.46$  9.13$  20.69$
|599>   Q  0.6645  8.43$  9.01$  19.59$
|600>   Q  -1.3290  8.16$  9.34$  20.3$
|601>   Q  0.6645  18.31$  8.69$  5.33$
|602>   Q  0.6645  18.8$  9.79$  4.35$
|603>   Q  -1.3290  18.77$  9.01$  4.69$
|604>   Q  0.6645  10.63$  7.64$  18.75$
|605>   Q  0.6645  12.05$  8.41$  18.44$
|606>   Q  -1.3290  11.43$  7.99$  18.91$
|607>   Q  0.6645  13.87$  6.96$  11.34$
|608>   Q  0.6645  14.12$  6.66$  9.83$
|609>   Q  -1.3290  14.13$  6.49$  10.65$
|610>   Q  0.6645  17.12$  12.87$  2.23$
|611>   Q  0.6645  18.21$  13.85$  2.82$
|612>   Q  -1.3290  17.4$  13.56$  2.65$
|613>   Q  0.6645  9.29$  19.02$  18.03$
|614>   Q  0.6645  10.69$  18.43$  17.67$
|615>   Q  -1.3290  10.09$  19.04$  17.76$
|616>   Q  0.6645  19.35$  15.25$  4.35$
|617>   Q  0.6645  20.54$  14.67$  3.51$
|618>   Q  -1.3290  19.77$  14.68$  3.88$
|619>   Q  0.6645  14.69$  9.5$  12.04$
|620>   Q  0.6645  15.81$  8.46$  12.25$
|621>   Q  -1.3290  15.13$  8.88$  12.46$
|622>   Q  0.6645  13.36$  10.87$  21.45$
|623>   Q  0.6645  12.49$  12.12$  21.77$
|624>   Q  -1.3290  12.99$  11.63$  21.28$
|625>   Q  0.6645  8.1$  6.98$  18.84$
|626>   Q  0.6645  8.71$  7.54$  17.46$
|627>   Q  -1.3290  8.7$  7.25$  18.28$
|628>   Q  0.6645  15.61$  7.76$  0.9$
|629>   Q  0.6645  14.74$  6.77$  1.52$
|630>   Q  -1.3290  15.46$  7.03$  1.28$
|631>   Q  0.6645  10.07$  13.36$  19.53$
|632>   Q  0.6645  10.13$  14.15$  18.1$
|633>   Q  -1.3290  10.03$  14.06$  18.98$
|634>   Q  0.6645  7.32$  16.26$  3.23$
|635>   Q  0.6645  7.04$  15$  4.1$
|636>   Q  -1.3290  7.32$  15.42$  3.4$
|637> *
|638> 
|639>                          ****END OF INPUT****
================================================================================

                     *******************************
                     * Energy+Gradient Calculation *
                     *******************************

---------------------------------
CARTESIAN COORDINATES (ANGSTROEM)
---------------------------------
  C     10.080000   10.800000   12.380000
  H     10.400000    9.870000   12.910000
  H      9.110000   10.530000   12.080000
  C     10.780000   11.290000   11.190000
  H     10.160000   12.140000   10.740000
  H     11.760000   11.750000   11.440000
  C     11.040000   10.210000   10.160000
  H     10.060000    9.830000    9.920000
  H     11.710000    9.360000   10.510000
  C     11.480000   10.750000    8.760000
  H     10.690000   11.420000    8.390000
  H     11.660000   10.020000    8.010000
  O     12.670000   11.590000    8.820000
  H     12.640000   12.430000    8.310000
  O      9.980000   11.850000   13.420000
  H     10.850000   11.840000   13.770000
  O     12.530000   11.220000   14.870000
  H     13.110000   11.900000   14.510000
  H     13.210000   10.590000   15.110000
  O      7.470000   11.520000   14.910000
  H      8.250000   11.740000   14.420000
  H      7.200000   12.270000   15.380000
  O     10.880000    9.350000    5.620000
  H     11.830000    9.340000    5.530000
  H     10.540000    8.460000    5.760000
  O      9.640000   11.580000    6.220000
  H      9.700000   11.890000    5.280000
  H     10.000000   10.710000    6.230000
  O     10.590000    7.330000   11.670000
  H     10.150000    7.280000   10.810000
  H      9.820000    7.470000   12.230000
  O     15.300000   12.530000   16.300000
  H     15.010000   12.680000   15.420000
  H     16.200000   12.870000   16.270000
  O     10.610000   10.750000   16.650000
  H     11.430000   10.940000   16.200000
  H     10.810000   10.920000   17.580000
  O     15.420000   10.660000    7.970000
  H     16.310000   10.790000    8.210000
  H     15.080000   10.350000    8.790000
  O      7.200000   12.330000    7.330000
  H      8.120000   12.190000    7.040000
  H      7.050000   11.920000    8.200000
  O     12.180000   14.370000    7.880000
  H     11.650000   14.140000    8.660000
  H     13.110000   14.190000    8.010000
  O     12.790000    6.660000   13.230000
  H     13.430000    7.220000   13.720000
  H     12.160000    7.170000   12.700000
  O     11.090000    4.090000   12.420000
  H     10.630000    4.980000   12.420000
  H     12.020000    4.360000   12.350000
  O      6.870000   13.750000   16.390000
  H      6.970000   13.480000   17.320000
  H      7.450000   14.510000   16.290000
  O      9.170000   14.430000   12.630000
  H      8.250000   14.660000   12.620000
  H      9.340000   13.590000   13.090000
  O     14.910000   13.690000    8.120000
  H     15.330000   13.990000    7.250000
  H     15.020000   12.740000    8.110000
  O      9.840000   10.310000    2.950000
  H      9.920000    9.610000    2.310000
  H     10.250000    9.890000    3.720000
  O      5.970000    9.310000   15.940000
  H      6.430000    9.990000   15.400000
  H      5.840000    8.500000   15.410000
  O     15.010000    9.640000   15.400000
  H     15.350000    9.430000   14.520000
  H     15.500000   10.390000   15.760000
  O     10.960000   14.930000   10.250000
  H     10.670000   14.790000   11.200000
  H     10.160000   15.400000    9.960000
  O     11.310000   13.690000   16.590000
  H     11.830000   13.460000   17.410000
  H     10.800000   12.960000   16.280000
  O     14.480000   10.620000   10.730000
  H     13.880000   11.090000   10.160000
  H     15.140000   11.300000   10.750000
  O      9.940000    6.760000    6.220000
  H      9.610000    6.470000    7.060000
  H      9.240000    6.540000    5.550000
  O     14.210000   13.300000   14.050000
  H     14.160000   14.280000   14.180000
  H     14.940000   13.100000   13.380000
  O      6.950000   10.830000    9.860000
  H      6.810000   11.260000   10.690000
  H      6.120000   10.600000    9.410000
  O      8.690000    7.970000   13.520000
  H      8.500000    7.000000   13.530000
  H      8.680000    8.260000   14.400000
  O     13.860000    9.790000    6.040000
  H     14.220000    9.030000    5.610000
  H     14.530000   10.040000    6.780000
  O      5.870000   11.830000   12.340000
  H      5.750000   11.700000   13.300000
  H      4.960000   12.010000   12.020000
  O      9.290000    6.440000    8.990000
  H      8.340000    6.550000    9.100000
  H      9.410000    5.510000    9.230000
  Q      6.990000   16.430000   15.050000
  Q      6.090000   15.850000   13.960000
  Q      6.340000   16.450000   14.530000
  Q      6.510000    7.680000   10.300000
  Q      7.080000    8.940000    9.730000
  Q      6.830000    8.150000    9.710000
  Q     15.910000   14.470000    1.580000
  Q     15.070000   14.580000    0.160000
  Q     15.290000   14.670000    1.000000
  Q      3.180000   15.470000   14.920000
  Q      2.490000   16.990000   14.760000
  Q      2.570000   16.090000   14.760000
  Q      6.580000   13.990000    6.480000
  Q      5.470000   13.730000    5.580000
  Q      6.080000   14.170000    5.850000
  Q     17.460000   12.040000    4.530000
  Q     18.850000   12.470000    4.550000
  Q     18.240000   11.910000    4.670000
  Q     18.460000   10.990000   13.720000
  Q     18.540000   10.740000   12.210000
  Q     18.490000   11.200000   12.900000
  Q     18.910000   13.420000   16.250000
  Q     18.760000   12.380000   17.140000
  Q     18.460000   12.880000   16.630000
  Q      6.090000    7.710000    0.850000
  Q      7.520000    7.820000    1.200000
  Q      6.900000    7.670000    0.660000
  Q      6.960000    3.510000   16.920000
  Q      5.550000    3.290000   16.290000
  Q      6.190000    3.130000   16.800000
  Q      1.240000   11.290000   13.340000
  Q      1.820000   10.160000   12.680000
  Q      1.650000   10.600000   13.350000
  Q     10.720000   22.480000    7.010000
  Q     11.510000   21.230000    6.860000
  Q     10.810000   21.650000    6.900000
  Q     18.110000   13.240000    9.200000
  Q     16.740000   13.930000    9.120000
  Q     17.380000   13.570000    9.530000
  Q      9.360000    9.400000   16.310000
  Q      7.850000    9.230000   16.210000
  Q      8.640000    8.980000   16.270000
  Q     14.560000    9.620000   18.790000
  Q     14.360000   11.050000   19.030000
  Q     14.730000   10.320000   19.150000
  Q     12.850000    5.130000    6.360000
  Q     11.790000    6.190000    6.660000
  Q     12.560000    5.900000    6.550000
  Q      7.680000   17.810000    6.840000
  Q      8.050000   19.280000    7.080000
  Q      8.180000   18.450000    7.080000
  Q      6.050000   19.990000    5.560000
  Q      5.770000   18.470000    5.790000
  Q      5.730000   19.220000    5.370000
  Q     11.210000   18.240000   11.910000
  Q     11.080000   19.610000   11.330000
  Q     10.890000   19.000000   11.860000
  Q     17.730000   18.160000    9.820000
  Q     18.870000   18.050000    8.880000
  Q     18.380000   17.790000    9.470000
  Q     14.590000   18.110000    2.110000
  Q     14.770000   16.550000    1.800000
  Q     14.400000   17.270000    2.030000
  Q     13.050000    6.910000    4.330000
  Q     12.200000    6.600000    3.100000
  Q     12.900000    6.850000    3.510000
  Q     12.380000    3.000000    6.930000
  Q     12.610000    3.110000    5.370000
  Q     12.680000    3.330000    6.180000
  Q     17.670000   16.170000    5.670000
  Q     19.050000   16.620000    6.170000
  Q     18.420000   16.560000    5.620000
  Q     14.800000    9.350000   21.090000
  Q     14.410000    9.560000   22.600000
  Q     14.320000    9.290000   21.770000
  Q      0.690000   10.290000    5.940000
  Q      1.790000   10.940000    6.790000
  Q      1.010000   10.740000    6.600000
  Q      5.210000    6.090000   16.050000
  Q      5.010000    6.290000   14.600000
  Q      5.450000    6.340000   15.290000
  Q     12.280000    1.220000   13.870000
  Q     11.170000    0.170000   14.310000
  Q     11.510000    0.950000   14.110000
  Q     15.000000    4.700000   11.260000
  Q     15.820000    3.390000   11.200000
  Q     15.530000    4.080000   11.540000
  Q     13.110000    7.650000   21.730000
  Q     12.100000    7.410000   20.640000
  Q     12.490000    7.230000   21.350000
  Q     13.960000   17.380000    4.020000
  Q     13.080000   16.890000    5.110000
  Q     13.750000   17.270000    4.810000
  Q     10.420000   20.000000   15.440000
  Q     10.300000   19.860000   13.790000
  Q     10.310000   20.250000   14.600000
  Q     16.540000   10.560000    1.230000
  Q     17.720000   11.320000    0.500000
  Q     17.020000   11.240000    0.970000
  Q      8.540000    2.650000    5.960000
  Q      7.400000    2.710000    6.980000
  Q      8.020000    3.040000    6.530000
  Q      2.500000   15.620000   12.960000
  Q      1.590000   15.780000   11.780000
  Q      2.340000   15.620000   12.140000
  Q     16.930000   12.310000   12.390000
  Q     16.310000   13.300000   11.500000
  Q     16.260000   12.700000   12.070000
  Q     14.510000    1.960000    5.710000
  Q     14.190000    1.500000    4.180000
  Q     14.330000    1.400000    5.050000
  Q      8.060000    7.380000    3.960000
  Q      9.070000    6.380000    3.410000
  Q      8.430000    6.650000    3.880000
  Q     19.670000    7.730000    9.490000
  Q     20.110000    6.940000    8.300000
  Q     20.080000    7.620000    8.780000
  Q      4.800000    4.650000    7.310000
  Q      3.340000    5.210000    7.700000
  Q      3.950000    4.650000    7.500000
  Q     16.750000   17.390000   19.590000
  Q     16.600000   15.970000   19.060000
  Q     16.340000   16.750000   19.250000
  Q      4.170000   18.100000   11.190000
  Q      3.080000   17.090000   11.010000
  Q      3.560000   17.750000   10.780000
  Q      2.290000   10.930000   16.830000
  Q      1.770000   10.170000   15.540000
  Q      1.920000   10.310000   16.400000
  Q     12.060000    2.450000   18.440000
  Q     12.510000    3.840000   18.220000
  Q     12.340000    3.040000   17.970000
  Q     15.360000   18.560000   12.610000
  Q     16.430000   17.460000   12.590000
  Q     15.760000   17.910000   12.290000
  Q      1.390000    6.590000    9.880000
  Q      0.000000    7.270000    9.610000
  Q      0.850000    7.240000    9.710000
  Q     15.360000   10.190000    3.130000
  Q     14.880000    8.790000    2.770000
  Q     15.040000    9.610000    2.600000
  Q     11.230000   10.050000   19.400000
  Q     12.020000   11.390000   19.610000
  Q     11.360000   10.910000   19.350000
  Q     12.820000   12.920000    3.040000
  Q     14.130000   13.660000    2.520000
  Q     13.630000   13.280000    3.130000
  Q     11.160000    3.010000   16.230000
  Q     10.540000    2.690000   14.860000
  Q     10.600000    3.090000   15.580000
  Q      6.790000   15.950000    9.560000
  Q      5.290000   16.510000    9.660000
  Q      5.920000   15.910000    9.630000
  Q      8.470000   17.250000    8.760000
  Q      8.480000   16.980000   10.300000
  Q      8.480000   16.770000    9.470000
  Q     14.170000    2.290000   13.630000
  Q     13.980000    1.630000   12.330000
  Q     14.000000    1.630000   13.170000
  Q      7.460000   14.330000    1.690000
  Q      7.140000   14.660000    0.290000
  Q      7.270000   14.120000    0.910000
  Q     15.500000    4.070000    4.040000
  Q     16.760000    4.810000    4.090000
  Q     16.100000    4.490000    4.420000
  Q      6.560000   10.810000    6.350000
  Q      6.590000    9.640000    5.360000
  Q      6.260000   10.110000    6.000000
  Q      9.130000   16.100000   16.360000
  Q      7.920000   16.650000   17.250000
  Q      8.310000   16.230000   16.570000
  Q      5.650000   16.870000    7.400000
  Q      6.220000   16.050000    6.190000
  Q      6.130000   16.730000    6.720000
  Q     14.630000    4.210000   13.390000
  Q     13.480000    4.530000   14.400000
  Q     14.100000    4.100000   14.080000
  Q     10.790000    4.480000   19.910000
  Q      9.410000    4.170000   19.340000
  Q     10.050000    4.680000   19.540000
  Q      6.110000    5.620000   19.700000
  Q      6.930000    6.560000   20.720000
  Q      6.600000    6.270000   19.940000
  Q      1.230000    9.120000   10.550000
  Q      0.810000   10.660000   10.410000
  Q      1.310000    9.980000   10.630000
  Q      9.550000   14.950000    0.660000
  Q     10.510000   14.970000    1.890000
  Q     10.260000   14.750000    1.110000
  Q      6.590000    6.200000    7.480000
  Q      7.270000    4.860000    7.170000
  Q      6.680000    5.360000    7.480000
  Q     15.490000    3.540000    7.830000
  Q     14.450000    4.460000    8.140000
  Q     15.000000    3.900000    8.360000
  Q      3.310000    7.210000    7.100000
  Q      2.040000    7.460000    7.870000
  Q      2.550000    7.030000    7.380000
  Q      3.170000    5.370000   16.840000
  Q      4.060000    5.120000   18.230000
  Q      3.880000    5.290000   17.380000
  Q     15.020000    7.900000    8.110000
  Q     13.860000    6.940000    7.710000
  Q     14.510000    7.240000    8.190000
  Q     12.160000   16.350000    8.180000
  Q     12.150000   17.400000    7.010000
  Q     12.400000   17.050000    7.750000
  Q     14.010000    1.160000   10.110000
  Q     14.270000    2.560000    9.570000
  Q     13.910000    1.990000   10.070000
  Q     10.710000   15.650000    4.360000
  Q      9.260000   15.530000    3.730000
  Q     10.060000   15.720000    3.790000
  Q      9.200000    1.030000   10.820000
  Q      7.940000    0.820000    9.920000
  Q      8.470000    1.250000   10.420000
  Q     19.750000   15.020000    8.120000
  Q     20.210000   13.610000    7.580000
  Q     19.890000   14.170000    8.150000
  Q     17.300000    7.990000   17.150000
  Q     16.650000    7.110000   16.090000
  Q     17.240000    7.610000   16.420000
  Q     10.840000   18.310000    3.910000
  Q     10.550000   17.770000    2.510000
  Q     10.570000   18.340000    3.130000
  Q     14.310000   17.440000    8.980000
  Q     15.220000   17.680000   10.270000
  Q     15.020000   17.690000    9.440000
  Q      4.230000    9.550000    8.690000
  Q      3.600000   10.580000    9.650000
  Q      4.220000   10.260000    9.140000
  Q      3.590000    2.660000   12.050000
  Q      4.230000    4.050000   12.350000
  Q      3.640000    3.430000   12.390000
  Q     18.280000   11.280000    6.710000
  Q     19.010000   10.770000    8.000000
  Q     18.340000   10.970000    7.510000
  Q     12.850000    5.360000   17.350000
  Q     12.360000    5.920000   18.720000
  Q     12.910000    5.520000   18.200000
  Q      9.830000    5.490000    1.680000
  Q     10.500000    4.850000    2.970000
  Q     10.270000    5.490000    2.430000
  Q     15.970000   13.910000   19.920000
  Q     15.350000   12.820000   20.840000
  Q     15.350000   13.550000   20.390000
  Q      5.470000    8.690000   17.740000
  Q      5.450000    7.650000   18.860000
  Q      5.270000    8.400000   18.520000
  Q     16.620000    3.620000    6.170000
  Q     17.670000    2.740000    6.760000
  Q     16.870000    2.980000    6.620000
  Q     14.630000   21.280000   13.740000
  Q     14.130000   20.000000   14.410000
  Q     14.580000   20.440000   13.810000
  Q     11.860000    2.600000    2.690000
  Q     11.010000    2.550000    3.960000
  Q     11.660000    2.760000    3.480000
  Q      7.950000    9.740000    3.510000
  Q      6.560000    9.880000    3.270000
  Q      7.190000    9.480000    3.560000
  Q     13.990000   13.300000   18.840000
  Q     13.900000   12.770000   17.440000
  Q     13.610000   12.920000   18.210000
  Q      7.050000   18.060000   18.700000
  Q      6.350000   16.710000   18.750000
  Q      7.010000   17.240000   18.750000
  Q     14.860000   11.240000    5.220000
  Q     14.840000   12.370000    4.290000
  Q     15.220000   11.790000    4.720000
  Q      2.640000    4.950000   11.130000
  Q      3.780000    5.550000   10.250000
  Q      3.050000    5.580000   10.670000
  Q     21.020000   12.970000   12.040000
  Q     20.230000   12.010000   12.840000
  Q     20.830000   12.550000   12.710000
  Q     18.130000    9.230000   10.410000
  Q     19.450000   10.040000   10.180000
  Q     18.860000    9.630000   10.670000
  Q      5.170000   19.740000   12.510000
  Q      6.440000   18.960000   12.070000
  Q      5.660000   19.320000   11.970000
  Q     15.510000    5.540000   16.780000
  Q     15.140000    5.120000   15.390000
  Q     15.360000    5.680000   16.010000
  Q     14.220000    7.290000   17.620000
  Q     14.520000    8.480000   16.670000
  Q     14.160000    8.090000   17.360000
  Q     18.530000   16.030000   10.930000
  Q     18.700000   14.560000   10.960000
  Q     18.810000   15.330000   11.230000
  Q     11.960000    1.970000    8.940000
  Q     10.810000    2.630000    8.360000
  Q     11.500000    2.240000    8.300000
  Q      8.180000   16.320000   20.250000
  Q      8.980000   15.000000   20.240000
  Q      8.420000   15.560000   20.550000
  Q     11.460000    4.880000   15.530000
  Q     11.810000    6.140000   14.870000
  Q     11.870000    5.570000   15.480000
  Q     13.010000   16.830000   12.670000
  Q     12.380000   16.100000   11.510000
  Q     12.440000   16.690000   12.110000
  Q     15.240000   15.610000    5.500000
  Q     15.980000   14.480000    4.710000
  Q     15.680000   14.890000    5.410000
  Q      5.710000   11.880000   19.490000
  Q      5.360000   10.430000   19.060000
  Q      5.200000   11.200000   19.390000
  Q     16.000000    7.530000    5.930000
  Q     15.490000    6.830000    4.580000
  Q     15.540000    7.430000    5.210000
  Q     17.190000    7.040000   11.000000
  Q     15.880000    7.230000   10.240000
  Q     16.640000    7.470000   10.520000
  Q     13.030000   17.160000   20.530000
  Q     14.220000   17.120000   19.690000
  Q     13.430000   17.260000   19.820000
  Q      8.670000    5.170000   14.880000
  Q      7.370000    5.640000   14.640000
  Q      8.080000    5.350000   14.400000
  Q      7.330000   20.480000    9.470000
  Q      6.060000   20.320000   10.250000
  Q      6.550000   20.700000    9.690000
  Q     18.690000    5.710000   11.810000
  Q     17.230000    5.280000   12.020000
  Q     17.910000    5.770000   12.080000
  Q     17.750000   10.730000   17.190000
  Q     16.830000   10.510000   18.420000
  Q     17.510000   10.400000   17.900000
  Q     20.440000    9.150000   12.320000
  Q     21.720000    9.590000   13.210000
  Q     20.930000    9.260000   13.040000
  Q     17.050000    6.440000    2.390000
  Q     18.380000    6.560000    3.150000
  Q     17.620000    6.260000    2.980000
  Q     13.020000   18.180000   16.040000
  Q     14.540000   18.310000   16.350000
  Q     13.840000   18.380000   15.880000
  Q      3.530000   12.820000   17.070000
  Q      3.690000   12.070000   18.440000
  Q      3.290000   12.350000   17.730000
  Q      8.740000   11.510000   20.690000
  Q      8.370000   12.800000   21.580000
  Q      8.690000   12.350000   20.910000
  Q      3.410000   11.990000    5.500000
  Q      4.250000   11.580000    6.720000
  Q      3.720000   12.060000    6.280000
  Q      5.180000   16.130000   20.650000
  Q      4.300000   15.710000   19.550000
  Q      5.030000   15.710000   19.940000
  Q     10.480000    3.620000   10.350000
  Q      9.280000    2.850000    9.840000
  Q      9.880000    3.460000    9.810000
  Q     10.940000   11.620000    2.260000
  Q     10.960000   12.890000    1.300000
  Q     11.290000   12.250000    1.830000
  Q     10.360000   18.630000    6.340000
  Q     11.710000   19.250000    5.920000
  Q     11.120000   18.610000    5.960000
  Q     -0.060000   13.360000    9.530000
  Q      1.260000   13.360000   10.420000
  Q      0.490000   13.130000   10.170000
  Q     11.970000   16.990000   18.330000
  Q     11.480000   16.050000   17.290000
  Q     11.700000   16.790000   17.580000
  Q      6.220000   13.830000   12.440000
  Q      6.030000   15.120000   11.530000
  Q      6.300000   14.670000   12.210000
  Q     13.570000   21.460000    5.860000
  Q     13.840000   20.030000    6.370000
  Q     13.320000   20.670000    6.140000
  Q     12.240000   18.840000    8.870000
  Q     12.900000   19.820000    9.940000
  Q     12.270000   19.470000    9.460000
  Q     19.730000    9.260000   14.470000
  Q     18.490000    8.670000   15.240000
  Q     19.050000    9.310000   14.980000
  Q     17.570000   18.540000    5.520000
  Q     16.700000   19.780000    5.900000
  Q     17.330000   19.350000    5.510000
  Q      8.030000   17.810000   13.040000
  Q      9.000000   18.590000   12.140000
  Q      8.260000   18.190000   12.340000
  Q     15.290000   18.560000    7.600000
  Q     14.780000   18.260000    6.270000
  Q     15.150000   18.730000    6.810000
  Q     17.310000    5.180000    8.870000
  Q     18.120000    4.930000    7.490000
  Q     17.960000    5.220000    8.280000
  Q      7.590000   13.220000   19.590000
  Q      6.320000   14.080000   19.320000
  Q      6.860000   13.430000   19.250000
  Q     18.040000   14.520000   19.070000
  Q     17.280000   14.160000   17.750000
  Q     17.360000   14.490000   18.530000
  Q      9.810000   20.850000    9.620000
  Q      9.650000   20.900000    8.170000
  Q      9.360000   20.810000    8.940000
  Q      5.140000   17.580000   15.680000
  Q      4.240000   17.850000   16.930000
  Q      4.830000   18.030000   16.360000
  Q     18.790000    8.850000    2.760000
  Q     19.790000    8.930000    1.330000
  Q     19.200000    8.610000    1.950000
  Q      5.750000    9.700000   12.900000
  Q      6.900000    8.570000   12.680000
  Q      6.090000    8.890000   12.850000
  Q     14.970000   16.240000   13.760000
  Q     13.960000   16.550000   14.800000
  Q     14.250000   16.150000   14.150000
  Q     12.460000   16.960000    0.890000
  Q     11.290000   16.380000    0.140000
  Q     11.820000   16.990000    0.370000
  Q      3.650000   13.650000    7.850000
  Q      4.420000   14.580000    8.960000
  Q      3.780000   14.180000    8.540000
  Q      9.030000    5.300000   17.510000
  Q      9.110000    4.120000   16.570000
  Q      8.720000    4.750000   16.950000
  Q      6.190000    5.030000   11.250000
  Q      6.080000    5.170000    9.680000
  Q      5.890000    5.330000   10.500000
  Q     11.940000   14.840000    6.160000
  Q     12.770000   14.760000    4.780000
  Q     12.220000   15.060000    5.370000
  Q     21.090000    9.410000    8.750000
  Q     21.620000   10.890000    8.750000
  Q     21.030000   10.270000    8.840000
  Q      3.390000    6.770000   12.480000
  Q      4.600000    7.590000   12.880000
  Q      3.990000    7.000000   12.970000
  Q     18.030000   15.950000   12.990000
  Q     18.070000   16.620000   14.390000
  Q     17.710000   16.210000   13.730000
  Q      4.040000   13.070000   14.930000
  Q      4.930000   13.910000   15.860000
  Q      4.260000   13.800000   15.350000
  Q      6.960000   18.690000    4.080000
  Q      8.390000   18.490000    3.680000
  Q      7.580000   18.340000    3.660000
  Q      5.980000   12.320000    2.530000
  Q      4.560000   11.600000    2.890000
  Q      5.420000   11.690000    2.800000
  Q      9.790000    8.760000   -0.100000
  Q     10.640000    7.710000    0.750000
  Q     10.000000    8.240000    0.560000
  Q      5.560000    5.180000    4.250000
  Q      6.990000    4.960000    3.760000
  Q      6.160000    4.780000    3.860000
  Q      9.990000   15.950000   13.820000
  Q     11.200000   16.750000   13.590000
  Q     10.580000   16.470000   14.040000
  Q      3.480000   13.330000   10.260000
  Q      3.120000   14.030000   11.520000
  Q      3.430000   13.370000   11.090000
  Q      3.460000   10.730000   14.280000
  Q      4.600000   10.430000   15.280000
  Q      4.150000   10.920000   14.720000
  Q      5.670000    7.860000    8.240000
  Q      5.180000    8.330000    6.870000
  Q      5.190000    7.820000    7.540000
  Q     11.780000    0.380000   11.140000
  Q     11.000000    0.900000   12.220000
  Q     11.060000    0.510000   11.500000
  Q      7.190000    3.970000   13.310000
  Q      6.300000    2.870000   12.640000
  Q      6.550000    3.670000   12.820000
  Q     17.490000    7.230000    7.790000
  Q     17.450000    8.800000    7.770000
  Q     17.290000    8.010000    7.510000
  Q      7.460000    9.130000   20.690000
  Q      8.430000    9.010000   19.590000
  Q      8.160000    9.340000   20.300000
  Q     18.310000    8.690000    5.330000
  Q     18.800000    9.790000    4.350000
  Q     18.770000    9.010000    4.690000
  Q     10.630000    7.640000   18.750000
  Q     12.050000    8.410000   18.440000
  Q     11.430000    7.990000   18.910000
  Q     13.870000    6.960000   11.340000
  Q     14.120000    6.660000    9.830000
  Q     14.130000    6.490000   10.650000
  Q     17.120000   12.870000    2.230000
  Q     18.210000   13.850000    2.820000
  Q     17.400000   13.560000    2.650000
  Q      9.290000   19.020000   18.030000
  Q     10.690000   18.430000   17.670000
  Q     10.090000   19.040000   17.760000
  Q     19.350000   15.250000    4.350000
  Q     20.540000   14.670000    3.510000
  Q     19.770000   14.680000    3.880000
  Q     14.690000    9.500000   12.040000
  Q     15.810000    8.460000   12.250000
  Q     15.130000    8.880000   12.460000
  Q     13.360000   10.870000   21.450000
  Q     12.490000   12.120000   21.770000
  Q     12.990000   11.630000   21.280000
  Q      8.100000    6.980000   18.840000
  Q      8.710000    7.540000   17.460000
  Q      8.700000    7.250000   18.280000
  Q     15.610000    7.760000    0.900000
  Q     14.740000    6.770000    1.520000
  Q     15.460000    7.030000    1.280000
  Q     10.070000   13.360000   19.530000
  Q     10.130000   14.150000   18.100000
  Q     10.030000   14.060000   18.980000
  Q      7.320000   16.260000    3.230000
  Q      7.040000   15.000000    4.100000
  Q      7.320000   15.420000    3.400000

----------------------------
CARTESIAN COORDINATES (A.U.)
----------------------------
  NO LB      ZA    FRAG     MASS         X           Y           Z
   0 C     6.0000    0    12.011   19.048439   20.409042   23.394810
   1 H     1.0000    0     1.008   19.653152   18.651597   24.396364
   2 H     1.0000    0     1.008   17.215405   19.898816   22.827892
   3 C     6.0000    0    12.011   20.371248   21.335008   21.146035
   4 H     1.0000    0     1.008   19.199618   22.941275   20.295659
   5 H     1.0000    0     1.008   22.223179   22.204282   21.618467
   6 C     6.0000    0    12.011   20.862577   19.294104   19.199618
   7 H     1.0000    0     1.008   19.010645   18.576008   18.746083
   8 H     1.0000    0     1.008   22.128693   17.687837   19.861022
   9 C     6.0000    0    12.011   21.694056   20.314556   16.554001
  10 H     1.0000    0     1.008   20.201172   21.580672   15.854802
  11 H     1.0000    0     1.008   22.034207   18.935056   15.136706
  12 O     8.0000    0    15.999   23.942830   21.901926   16.667385
  13 H     1.0000    0     1.008   23.886138   23.489296   15.703624
  14 O     8.0000    0    15.999   18.859467   22.393255   25.360125
  15 H     1.0000    0     1.008   20.503529   22.374357   26.021529
  16 O     8.0000    0    15.999   23.678268   21.202727   28.100228
  17 H     1.0000    0     1.008   24.774310   22.487741   27.419926
  18 H     1.0000    0     1.008   24.963282   20.012200   28.553762
  19 O     8.0000    0    15.999   14.116254   21.769645   28.175817
  20 H     1.0000    0     1.008   15.590241   22.185385   27.249851
  21 H     1.0000    0     1.008   13.606028   23.186940   29.063988
  22 O     8.0000    0    15.999   20.560220   17.668939   10.620261
  23 H     1.0000    0     1.008   22.355460   17.650042   10.450186
  24 H     1.0000    0     1.008   19.917713   15.987083   10.884823
  25 O     8.0000    0    15.999   18.216960   21.883029   11.754097
  26 H     1.0000    0     1.008   18.330343   22.468844    9.977754
  27 H     1.0000    0     1.008   18.897261   20.238967   11.772994
  28 O     8.0000    0    15.999   20.012200   13.851693   22.053104
  29 H     1.0000    0     1.008   19.180720   13.757206   20.427940
  30 H     1.0000    0     1.008   18.557111   14.116254   23.111351
  31 O     8.0000    0    15.999   28.912810   23.678268   30.802536
  32 H     1.0000    0     1.008   28.364789   23.961727   29.139577
  33 H     1.0000    0     1.008   30.613563   24.320775   30.745844
  34 O     8.0000    0    15.999   20.049994   20.314556   31.463940
  35 H     1.0000    0     1.008   21.599570   20.673604   30.613563
  36 H     1.0000    0     1.008   20.427940   20.635809   33.221385
  37 O     8.0000    0    15.999   29.139577   20.144481   15.061117
  38 H     1.0000    0     1.008   30.821433   20.390145   15.514652
  39 H     1.0000    0     1.008   28.497070   19.558665   16.610693
  40 O     8.0000    0    15.999   13.606028   23.300323   13.851693
  41 H     1.0000    0     1.008   15.344576   23.035762   13.303672
  42 H     1.0000    0     1.008   13.322569   22.525536   15.495754
  43 O     8.0000    0    15.999   23.016864   27.155365   14.891042
  44 H     1.0000    0     1.008   22.015309   26.720728   16.365028
  45 H     1.0000    0     1.008   24.774310   26.815214   15.136706
  46 O     8.0000    0    15.999   24.169597   12.585576   25.001077
  47 H     1.0000    0     1.008   25.379022   13.643823   25.927043
  48 H     1.0000    0     1.008   22.979070   13.549336   23.999522
  49 O     8.0000    0    15.999   20.957063    7.728980   23.470399
  50 H     1.0000    0     1.008   20.087789    9.410836   23.470399
  51 H     1.0000    0     1.008   22.714508    8.239206   23.338118
  52 O     8.0000    0    15.999   12.982419   25.983734   30.972611
  53 H     1.0000    0     1.008   13.171391   25.473508   32.730057
  54 H     1.0000    0     1.008   14.078460   27.419926   30.783639
  55 O     8.0000    0    15.999   17.328789   27.268748   23.867241
  56 H     1.0000    0     1.008   15.590241   27.703385   23.848344
  57 H     1.0000    0     1.008   17.650042   25.681378   24.736515
  58 O     8.0000    0    15.999   28.175817   25.870351   15.344576
  59 H     1.0000    0     1.008   28.969502   26.437269   13.700514
  60 H     1.0000    0     1.008   28.383687   24.075111   15.325679
  61 O     8.0000    0    15.999   18.594905   19.483076    5.574692
  62 H     1.0000    0     1.008   18.746083   18.160268    4.365267
  63 H     1.0000    0     1.008   19.369693   18.689391    7.029781
  64 O     8.0000    0    15.999   11.281665   17.593350   30.122235
  65 H     1.0000    0     1.008   12.150939   18.878364   29.101782
  66 H     1.0000    0     1.008   11.036001   16.062672   29.120680
  67 O     8.0000    0    15.999   28.364789   18.216960   29.101782
  68 H     1.0000    0     1.008   29.007296   17.820117   27.438823
  69 H     1.0000    0     1.008   29.290755   19.634255   29.782084
  70 O     8.0000    0    15.999   20.711398   28.213611   19.369693
  71 H     1.0000    0     1.008   20.163378   27.949050   21.164933
  72 H     1.0000    0     1.008   19.199618   29.101782   18.821672
  73 O     8.0000    0    15.999   21.372803   25.870351   31.350557
  74 H     1.0000    0     1.008   22.355460   25.435714   32.900132
  75 H     1.0000    0     1.008   20.409042   24.490851   30.764741
  76 O     8.0000    0    15.999   27.363234   20.068892   20.276761
  77 H     1.0000    0     1.008   26.229399   20.957063   19.199618
  78 H     1.0000    0     1.008   28.610454   21.353905   20.314556
  79 O     8.0000    0    15.999   18.783878   12.774549   11.754097
  80 H     1.0000    0     1.008   18.160268   12.226528   13.341467
  81 H     1.0000    0     1.008   17.461069   12.358809   10.487980
  82 O     8.0000    0    15.999   26.853008   25.133358   26.550652
  83 H     1.0000    0     1.008   26.758522   26.985289   26.796317
  84 H     1.0000    0     1.008   28.232508   24.755412   25.284536
  85 O     8.0000    0    15.999   13.133597   20.465734   18.632700
  86 H     1.0000    0     1.008   12.869035   21.278316   20.201172
  87 H     1.0000    0     1.008   11.565124   20.031097   17.782323
  88 O     8.0000    0    15.999   16.421720   15.061117   25.549097
  89 H     1.0000    0     1.008   16.062672   13.228083   25.567995
  90 H     1.0000    0     1.008   16.402823   15.609138   27.212056
  91 O     8.0000    0    15.999   26.191604   18.500419   11.413946
  92 H     1.0000    0     1.008   26.871906   17.064227   10.601364
  93 H     1.0000    0     1.008   27.457721   18.972850   12.812343
  94 O     8.0000    0    15.999   11.092692   22.355460   23.319220
  95 H     1.0000    0     1.008   10.865925   22.109796   25.133358
  96 H     1.0000    0     1.008    9.373042   22.695611   22.714508
  97 O     8.0000    0    15.999   17.555556   12.169836   16.988638
  98 H     1.0000    0     1.008   15.760316   12.377706   17.196508
  99 H     1.0000    0     1.008   17.782323   10.412391   17.442172
 100 Q     0.6645    0     0.000   13.209186   31.048200   28.440378
 101 Q     0.6645    0     0.000   11.508432   29.952159   26.380577
 102 Q    -1.3290    0     0.000   11.980864   31.085995   27.457721
 103 Q     0.6645    0     0.000   12.302117   14.513097   19.464179
 104 Q     0.6645    0     0.000   13.379261   16.894152   18.387035
 105 Q    -1.3290    0     0.000   12.906829   15.401268   18.349241
 106 Q     0.6645    0     0.000   30.065543   27.344337    2.985767
 107 Q     0.6645    0     0.000   28.478173   27.552207    0.302356
 108 Q    -1.3290    0     0.000   28.893913   27.722282    1.889726
 109 Q     0.6645    0     0.000    6.009329   29.234063   28.194714
 110 Q     0.6645    0     0.000    4.705418   32.106447   27.892358
 111 Q    -1.3290    0     0.000    4.856596   30.405693   27.892358
 112 Q     0.6645    0     0.000   12.434398   26.437269   12.245425
 113 Q     0.6645    0     0.000   10.336802   25.945940   10.544672
 114 Q    -1.3290    0     0.000   11.489535   26.777419   11.054898
 115 Q     0.6645    0     0.000   32.994618   22.752303    8.560459
 116 Q     0.6645    0     0.000   35.621338   23.564885    8.598254
 117 Q    -1.3290    0     0.000   34.468605   22.506638    8.825021
 118 Q     0.6645    0     0.000   34.884344   20.768090   25.927043
 119 Q     0.6645    0     0.000   35.035523   20.295659   23.073556
 120 Q    -1.3290    0     0.000   34.941036   21.164933   24.377467
 121 Q     0.6645    0     0.000   35.734721   25.360125   30.708050
 122 Q     0.6645    0     0.000   35.451262   23.394810   32.389906
 123 Q    -1.3290    0     0.000   34.884344   24.339673   31.426146
 124 Q     0.6645    0     0.000   11.508432   14.569788    1.606267
 125 Q     0.6645    0     0.000   14.210741   14.777658    2.267671
 126 Q    -1.3290    0     0.000   13.039110   14.494199    1.247219
 127 Q     0.6645    0     0.000   13.152494    6.632939   31.974166
 128 Q     0.6645    0     0.000   10.487980    6.217199   30.783639
 129 Q    -1.3290    0     0.000   11.697405    5.914843   31.747399
 130 Q     0.6645    0     0.000    2.343260   21.335008   25.208947
 131 Q     0.6645    0     0.000    3.439302   19.199618   23.961727
 132 Q    -1.3290    0     0.000    3.118048   20.031097   25.227844
 133 Q     0.6645    0     0.000   20.257864   42.481043   13.246980
 134 Q     0.6645    0     0.000   21.750748   40.118886   12.963521
 135 Q    -1.3290    0     0.000   20.427940   40.912571   13.039110
 136 Q     0.6645    0     0.000   34.222940   25.019974   17.385480
 137 Q     0.6645    0     0.000   31.634015   26.323885   17.234302
 138 Q    -1.3290    0     0.000   32.843440   25.643584   18.009090
 139 Q     0.6645    0     0.000   17.687837   17.763426   30.821433
 140 Q     0.6645    0     0.000   14.834350   17.442172   30.632461
 141 Q    -1.3290    0     0.000   16.327234   16.969741   30.745844
 142 Q     0.6645    0     0.000   27.514413   18.179165   35.507954
 143 Q     0.6645    0     0.000   27.136467   20.881474   35.961488
 144 Q    -1.3290    0     0.000   27.835666   19.501974   36.188255
 145 Q     0.6645    0     0.000   24.282981    9.694295   12.018658
 146 Q     0.6645    0     0.000   22.279871   11.697405   12.585576
 147 Q    -1.3290    0     0.000   23.734960   11.149384   12.377706
 148 Q     0.6645    0     0.000   14.513097   33.656022   12.925727
 149 Q     0.6645    0     0.000   15.212295   36.433920   13.379261
 150 Q    -1.3290    0     0.000   15.457960   34.865447   13.379261
 151 Q     0.6645    0     0.000   11.432843   37.775625   10.506877
 152 Q     0.6645    0     0.000   10.903720   34.903242   10.941514
 153 Q    -1.3290    0     0.000   10.828131   36.320536   10.147829
 154 Q     0.6645    0     0.000   21.183830   34.468605   22.506638
 155 Q     0.6645    0     0.000   20.938166   37.057529   21.410597
 156 Q    -1.3290    0     0.000   20.579118   35.904797   22.412152
 157 Q     0.6645    0     0.000   33.504844   34.317427   18.557111
 158 Q     0.6645    0     0.000   35.659132   34.109557   16.780768
 159 Q    -1.3290    0     0.000   34.733166   33.618228   17.895706
 160 Q     0.6645    0     0.000   27.571104   34.222940    3.987322
 161 Q     0.6645    0     0.000   27.911255   31.274968    3.401507
 162 Q    -1.3290    0     0.000   27.212056   32.635570    3.836144
 163 Q     0.6645    0     0.000   24.660926   13.058008    8.182514
 164 Q     0.6645    0     0.000   23.054659   12.472192    5.858151
 165 Q    -1.3290    0     0.000   24.377467   12.944624    6.632939
 166 Q     0.6645    0     0.000   23.394810    5.669178   13.095802
 167 Q     0.6645    0     0.000   23.829447    5.877048   10.147829
 168 Q    -1.3290    0     0.000   23.961727    6.292788   11.678508
 169 Q     0.6645    0     0.000   33.391461   30.556872   10.714747
 170 Q     0.6645    0     0.000   35.999283   31.407248   11.659610
 171 Q    -1.3290    0     0.000   34.808755   31.293865   10.620261
 172 Q     0.6645    0     0.000   27.967947   17.668939   39.854324
 173 Q     0.6645    0     0.000   27.230954   18.065782   42.707811
 174 Q    -1.3290    0     0.000   27.060878   17.555556   41.139338
 175 Q     0.6645    0     0.000    1.303911   19.445282   11.224973
 176 Q     0.6645    0     0.000    3.382610   20.673604   12.831240
 177 Q    -1.3290    0     0.000    1.908623   20.295659   12.472192
 178 Q     0.6645    0     0.000    9.845473   11.508432   30.330104
 179 Q     0.6645    0     0.000    9.467528   11.886377   27.590002
 180 Q    -1.3290    0     0.000   10.299007   11.980864   28.893913
 181 Q     0.6645    0     0.000   23.205837    2.305466   26.210501
 182 Q     0.6645    0     0.000   21.108241    0.321253   27.041981
 183 Q    -1.3290    0     0.000   21.750748    1.795240   26.664036
 184 Q     0.6645    0     0.000   28.345892    8.881713   21.278316
 185 Q     0.6645    0     0.000   29.895467    6.406172   21.164933
 186 Q    -1.3290    0     0.000   29.347447    7.710083   21.807440
 187 Q     0.6645    0     0.000   24.774310   14.456405   41.063749
 188 Q     0.6645    0     0.000   22.865686   14.002871   39.003947
 189 Q    -1.3290    0     0.000   23.602679   13.662720   40.345653
 190 Q     0.6645    0     0.000   26.380577   32.843440    7.596699
 191 Q     0.6645    0     0.000   24.717618   31.917474    9.656501
 192 Q    -1.3290    0     0.000   25.983734   32.635570    9.089583
 193 Q     0.6645    0     0.000   19.690946   37.794523   29.177372
 194 Q     0.6645    0     0.000   19.464179   37.529961   26.059323
 195 Q    -1.3290    0     0.000   19.483076   38.266954   27.590002
 196 Q     0.6645    0     0.000   31.256070   19.955508    2.324363
 197 Q     0.6645    0     0.000   33.485947   21.391700    0.944863
 198 Q    -1.3290    0     0.000   32.163139   21.240522    1.833034
 199 Q     0.6645    0     0.000   16.138261    5.007774   11.262768
 200 Q     0.6645    0     0.000   13.983973    5.121158   13.190288
 201 Q    -1.3290    0     0.000   15.155604    5.744767   12.339912
 202 Q     0.6645    0     0.000    4.724315   29.517522   24.490851
 203 Q     0.6645    0     0.000    3.004665   29.819878   22.260974
 204 Q    -1.3290    0     0.000    4.421959   29.517522   22.941275
 205 Q     0.6645    0     0.000   31.993063   23.262529   23.413707
 206 Q     0.6645    0     0.000   30.821433   25.133358   21.731851
 207 Q    -1.3290    0     0.000   30.726947   23.999522   22.808994
 208 Q     0.6645    0     0.000   27.419926    3.703863   10.790336
 209 Q     0.6645    0     0.000   26.815214    2.834589    7.899055
 210 Q    -1.3290    0     0.000   27.079775    2.645617    9.543117
 211 Q     0.6645    0     0.000   15.231193   13.946179    7.483315
 212 Q     0.6645    0     0.000   17.139816   12.056453    6.443966
 213 Q    -1.3290    0     0.000   15.930391   12.566679    7.332137
 214 Q     0.6645    0     0.000   37.170913   14.607583   17.933501
 215 Q     0.6645    0     0.000   38.002393   13.114699   15.684727
 216 Q    -1.3290    0     0.000   37.945701   14.399713   16.591795
 217 Q     0.6645    0     0.000    9.070685    8.787227   13.813898
 218 Q     0.6645    0     0.000    6.311685    9.845473   14.550891
 219 Q    -1.3290    0     0.000    7.464418    8.787227   14.172946
 220 Q     0.6645    0     0.000   31.652913   32.862337   37.019735
 221 Q     0.6645    0     0.000   31.369454   30.178926   36.018180
 222 Q    -1.3290    0     0.000   30.878125   31.652913   36.377228
 223 Q     0.6645    0     0.000    7.880158   34.204043   21.146035
 224 Q     0.6645    0     0.000    5.820356   32.295420   20.805885
 225 Q    -1.3290    0     0.000    6.727425   33.542639   20.371248
 226 Q     0.6645    0     0.000    4.327473   20.654707   31.804091
 227 Q     0.6645    0     0.000    3.344815   19.218515   29.366344
 228 Q    -1.3290    0     0.000    3.628274   19.483076   30.991509
 229 Q     0.6645    0     0.000   22.790097    4.629829   34.846550
 230 Q     0.6645    0     0.000   23.640474    7.256548   34.430810
 231 Q    -1.3290    0     0.000   23.319220    5.744767   33.958379
[...]
 320   Q   :    0.007226090    0.129422712    0.276415397
 321   Q   :   -0.201703322   -0.160987411   -0.096860338
 322   Q   :    0.194733025    0.030144697   -0.168723838
 323   Q   :    0.103528252   -0.024624590    0.278280807
 324   Q   :   -0.002016358   -0.207601378   -0.208413221
 325   Q   :   -0.096039967    0.230082092   -0.081497131
 326   Q   :   -0.208200035   -0.072889227   -0.128035260
 327   Q   :    0.055359473   -0.008295475    0.265487935
 328   Q   :    0.156856515    0.076973757   -0.134641623
 329   Q   :   -0.006939661   -0.246876069   -0.155755347
 330   Q   :   -0.197314648    0.092380935    0.153985661
 331   Q   :    0.193899420    0.157523448    0.001919369
 332   Q   :   -0.002738022   -0.273118163   -0.130749114
 333   Q   :    0.195229110    0.190127183   -0.028110142
 334   Q   :   -0.192422886    0.077852597    0.162553499
 335   Q   :   -0.004155406    0.099893213   -0.245073398
 336   Q   :    0.220979151   -0.061305000    0.156042484
 337   Q   :   -0.213917038   -0.032164436    0.090947543
 338   Q   :   -0.026493200   -0.057539091   -0.248044821
 339   Q   :   -0.187317727    0.117576790    0.159496822
 340   Q   :    0.222510073   -0.055632476    0.102236692
 341   Q   :   -0.138291581   -0.013036585   -0.230013939
 342   Q   :    0.060397927   -0.205744892    0.161238955
 343   Q   :    0.083465499    0.210513002    0.059701046
 344   Q   :    0.212388617    0.102004672   -0.143799734
 345   Q   :    0.024467569   -0.245550491    0.144855494
 346   Q   :   -0.234013997    0.142701602    0.015180125
 347   Q   :    0.075631832    0.078263198   -0.248361136
 348   Q   :    0.067664728   -0.265579082    0.102359828
 349   Q   :   -0.154773150    0.178690433    0.147267948
 350   Q   :   -0.070315550    0.240682859   -0.147894462
 351   Q   :    0.283684884   -0.059868908    0.040971217
 352   Q   :   -0.198821642   -0.191559116    0.112901167
 353   Q   :    0.008924867    0.299337910   -0.010870271
 354   Q   :   -0.140745046   -0.112575496    0.185722468
 355   Q   :    0.130650920   -0.173994268   -0.175995266
 356   Q   :    0.058114278   -0.065106539   -0.291357563
 357   Q   :   -0.242080461   -0.078591561    0.159474417
 358   Q   :    0.183471893    0.142200281    0.127363672
 359   Q   :    0.285510787    0.106328425   -0.021195946
 360   Q   :   -0.234093455    0.159534657   -0.115965744
 361   Q   :   -0.054461186   -0.273078012    0.129404272
 362   Q   :    0.146717333    0.134939128    0.207870266
 363   Q   :    0.100043128   -0.046731986   -0.257508078
 364   Q   :   -0.252400716   -0.085901617    0.047335856
 365   Q   :    0.006913257    0.310816456   -0.019522278
 366   Q   :   -0.224346602   -0.156441248   -0.010480842
 367   Q   :    0.212146319   -0.146464163    0.031949007
 368   Q   :   -0.133909481   -0.186611748    0.175987253
 369   Q   :   -0.139289913    0.207034541   -0.146240777
 370   Q   :    0.281441489   -0.017038300   -0.017477698
 371   Q   :   -0.120064502   -0.190013350    0.129655278
 372   Q   :    0.240815312   -0.024655936   -0.143533450
 373   Q   :   -0.120452147    0.214006826    0.004659739
 374   Q   :    0.063518420    0.155380658   -0.279139506
 375   Q   :   -0.217342261   -0.199254239    0.027020128
 376   Q   :    0.163808642    0.046644304    0.249784124
 377   Q   :   -0.212069021   -0.114356093   -0.098394459
 378   Q   :    0.165000026    0.121199952   -0.156647815
 379   Q   :    0.041176216   -0.007738832    0.248306362
 380   Q   :   -0.167079678    0.144671319    0.200102767
 381   Q   :    0.228074388   -0.103975704    0.043065066
 382   Q   :   -0.067789861   -0.035306274   -0.233371000
 383   Q   :    0.063604360   -0.069709024    0.321468603
 384   Q   :   -0.061869953   -0.179746599   -0.177586886
 385   Q   :   -0.005284161    0.248696743   -0.143096224
 386   Q   :    0.037305662   -0.274811316    0.083020734
 387   Q   :    0.113233256    0.100932226   -0.199403427
 388   Q   :   -0.146601529    0.161201337    0.114020702
 389   Q   :   -0.122257267    0.261553070   -0.114371564
 390   Q   :   -0.045331617   -0.277980123   -0.105047105
 391   Q   :    0.177098953    0.007542612    0.221461619
 392   Q   :    0.149449547   -0.092115926    0.234003727
 393   Q   :   -0.274196505    0.151891782    0.027953446
 394   Q   :    0.116811377   -0.078023347   -0.258918073
 395   Q   :   -0.067437300    0.258500392   -0.103374533
 396   Q   :    0.180442244   -0.171844520   -0.098342542
 397   Q   :   -0.115624517   -0.081489447    0.217137607
 398   Q   :   -0.163107092   -0.264490458    0.007851001
 399   Q   :   -0.039180571    0.183789010   -0.212884584
 400   Q   :    0.195428648    0.095591823    0.207742174
 401   Q   :    0.216901882    0.049683210    0.207067625
 402   Q   :   -0.005238150   -0.205414954   -0.195258264
 403   Q   :   -0.200854019    0.151017582   -0.021660914
 404   Q   :   -0.137664713    0.242103847    0.021470594
 405   Q   :    0.094366774   -0.114498128   -0.226785800
 406   Q   :    0.044091592   -0.129912736    0.198711551
 407   Q   :    0.167392911    0.207393620    0.027427857
 408   Q   :    0.073495574   -0.239106421   -0.114024745
 409   Q   :   -0.237662619    0.023246602    0.093423029
 410   Q   :    0.147711159    0.022321389    0.226168345
 411   Q   :   -0.013211852   -0.188322432   -0.192526147
 412   Q   :   -0.134404543    0.158700910   -0.041273721
 413   Q   :    0.173008446   -0.143546597    0.145452694
 414   Q   :   -0.244957604   -0.089562904   -0.093123078
 415   Q   :    0.068318153    0.238711474   -0.071130391
 416   Q   :   -0.136535095   -0.043088301    0.278913293
 417   Q   :    0.296653918   -0.055195889   -0.024949817
 418   Q   :   -0.159157189    0.102473929   -0.245383235
 419   Q   :    0.249320581   -0.070657358    0.210337042
 420   Q   :   -0.257070080    0.110149136    0.099283813
 421   Q   :    0.020332306   -0.046238063   -0.309000898
 422   Q   :    0.262025065   -0.099455057   -0.064212407
 423   Q   :   -0.158646160   -0.144575653    0.192597198
 424   Q   :   -0.109259968    0.245149316   -0.133062268
 425   Q   :    0.285463797   -0.031632327   -0.117076184
 426   Q   :   -0.218927142   -0.169595787   -0.037770630
 427   Q   :   -0.054163578    0.197943546    0.167551520
 428   Q   :    0.082292379    0.145235463   -0.270078270
 429   Q   :   -0.213999649    0.048704162    0.155095774
 430   Q   :    0.139583953   -0.190167056    0.116335411
 431   Q   :   -0.135572117   -0.029786288   -0.225307801
 432   Q   :    0.251765055    0.104854010    0.040129288
 433   Q   :   -0.101544980   -0.077409211    0.176824825
 434   Q   :   -0.182714689    0.064099778   -0.197933661
 435   Q   :    0.270626184    0.107667751    0.057379951
 436   Q   :   -0.074944504   -0.167321088    0.141771138
 437   Q   :   -0.254079398   -0.068224425    0.056175120
 438   Q   :    0.238490383   -0.031562201    0.168743322
 439   Q   :    0.018587839    0.103737490   -0.222569385
 440   Q   :    0.097784442    0.162850442   -0.221304595
 441   Q   :    0.129718652   -0.070482091    0.213820780
 442   Q   :   -0.229949345   -0.080905323    0.012897343
 443   Q   :    0.008841517   -0.250961741   -0.056095656
 444   Q   :   -0.106395256    0.132947211    0.219522474
 445   Q   :    0.100085541    0.114687179   -0.149243095
 446   Q   :   -0.102997089   -0.039806806   -0.278756260
 447   Q   :    0.178782077   -0.174216574    0.139946254
 448   Q   :   -0.077848986    0.212566723    0.133716938
 449   Q   :    0.029014754    0.160117912    0.244646595
 450   Q   :   -0.273382915    0.019622816   -0.131762950
 451   Q   :    0.236983386   -0.177717543   -0.102482290
 452   Q   :    0.218745098    0.047742426    0.195795454
 453   Q   :   -0.175105254   -0.188892577    0.009245493
 454   Q   :   -0.039564931    0.148043933   -0.207549185
 455   Q   :   -0.126082329   -0.211445530    0.147130626
 456   Q   :   -0.099528997    0.164275441   -0.146109509
 457   Q   :    0.228283164    0.037742245   -0.011291051
 458   Q   :   -0.241189065    0.021714966    0.130346297
 459   Q   :    0.168767010    0.194901506   -0.000064955
 460   Q   :    0.063788850   -0.211287505   -0.130469441
 461   Q   :   -0.164706383    0.082778621   -0.204857489
 462   Q   :    0.269505898    0.094159681    0.077003540
 463   Q   :   -0.108363999   -0.170573922    0.126485488
 464   Q   :    0.081992020    0.062506037    0.272080568
 465   Q   :   -0.081976625   -0.275634863   -0.090742420
 466   Q   :   -0.006877252    0.200872514   -0.184881436
 467   Q   :   -0.023818990   -0.247630636    0.066072215
 468   Q   :   -0.088824531    0.135361733   -0.212811137
 469   Q   :    0.104317012    0.113842459    0.145695717
 470   Q   :    0.091069727    0.244014738   -0.082271483
 471   Q   :    0.166910737   -0.189421667    0.067429770
 472   Q   :   -0.253086839   -0.045138521    0.007331932
 473   Q   :    0.006295584   -0.194008684   -0.182848531
 474   Q   :    0.210850158    0.109045717    0.153916005
 475   Q   :   -0.214722993    0.089090411    0.025902944
 476   Q   :    0.211440134   -0.026799951   -0.161375047
 477   Q   :   -0.147252953   -0.183610249    0.054380159
 478   Q   :   -0.063562427    0.207671724    0.114382132
 479   Q   :    0.071953532   -0.283203306    0.016156489
 480   Q   :   -0.204561704    0.140285336    0.132676201
 481   Q   :    0.133522131    0.153537646   -0.149953601
 482   Q   :   -0.073176874   -0.134862178    0.258547675
 483   Q   :    0.221304322    0.117310333   -0.049988764
 484   Q   :   -0.148599656    0.015140604   -0.203349688
 485   Q   :    0.042336295   -0.072470343    0.278445214
 486   Q   :   -0.141869409   -0.185472729   -0.188110480
 487   Q   :    0.109969551    0.253568572   -0.085068097
 488   Q   :   -0.199167033   -0.014207831    0.171605318
 489   Q   :    0.045699242   -0.101088289   -0.269246544
 490   Q   :    0.157083082    0.106873574    0.100101331
 491   Q   :    0.246933234   -0.063690048    0.114360449
 492   Q   :   -0.174592215    0.212275530    0.018512917
 493   Q   :   -0.068529257   -0.141882000   -0.132633336
 494   Q   :    0.218862245    0.007263665    0.165136798
 495   Q   :   -0.015949178   -0.105905716   -0.253329802
 496   Q   :   -0.198799874    0.091053416    0.074148988
 497   Q   :    0.188998995    0.020182354    0.257475945
 498   Q   :    0.109334151    0.027632649   -0.260079667
 499   Q   :   -0.299007576   -0.049417013    0.013346604
 500   Q   :    0.071839657   -0.143390581   -0.194219522
 501   Q   :   -0.218550934   -0.081049717    0.203815092
 502   Q   :    0.139517076    0.231039337   -0.002955736
 503   Q   :   -0.098488889    0.077652185    0.187800072
 504   Q   :    0.167458553    0.103344974   -0.171106563
 505   Q   :   -0.069113693   -0.173203429   -0.027506416
 506   Q   :   -0.094551681    0.245921203    0.016050365
 507   Q   :    0.233325333   -0.083843161   -0.060195222
 508   Q   :   -0.135666951   -0.155719061    0.040148451
 509   Q   :    0.266224177    0.038334412   -0.132601538
 510   Q   :   -0.094075399    0.149998700    0.241688439
 511   Q   :   -0.171206766   -0.184706612   -0.104134274
 512   Q   :    0.229001927   -0.033622359    0.194128726
 513   Q   :   -0.179368568   -0.221851967   -0.074615407
 514   Q   :   -0.053038501    0.259689734   -0.127048046
 515   Q   :   -0.029156423   -0.159231848   -0.202296896
 516   Q   :    0.201866455    0.115754693    0.130711333
 517   Q   :   -0.178968929    0.049600504    0.062311295
 518   Q   :    0.117736012    0.167247905    0.180826859
 519   Q   :    0.140216204   -0.215170984   -0.124860482
 520   Q   :   -0.264434359    0.055251166   -0.051191307
 521   Q   :    0.104088188   -0.095809127    0.223224174
 522   Q   :    0.073314690   -0.059274206   -0.260198118
 523   Q   :   -0.174287748    0.158486005    0.038382973
 524   Q   :   -0.083671896   -0.071026204    0.229360363
 525   Q   :    0.177999059   -0.095293081   -0.183542076
 526   Q   :   -0.092188073    0.160758438   -0.043030175
 527   Q   :    0.037379487   -0.250849860   -0.026943633
 528   Q   :    0.202144214    0.196444578   -0.033912514
 529   Q   :   -0.218135961    0.063397547    0.057587740
 530   Q   :   -0.236181969   -0.078129244   -0.197108868
 531   Q   :    0.183434883    0.185514925   -0.040906940
 532   Q   :    0.035645721   -0.108014615    0.234735321
 533   Q   :    0.109800777   -0.067512938   -0.239237577
 534   Q   :    0.132592061    0.141341659    0.213682033
 535   Q   :   -0.242308817   -0.073653324    0.038864786
 536   Q   :   -0.057985003   -0.219597227   -0.122118137
 537   Q   :    0.212578193    0.021859405    0.170656441
 538   Q   :   -0.158945623    0.199331025   -0.051311237
 539   Q   :   -0.201619124    0.132313457    0.155637633
 540   Q   :    0.287697386    0.065731521    0.024606997
 541   Q   :   -0.079930519   -0.188627411   -0.181275275
 542   Q   :    0.155077000    0.192797633   -0.076735594
 543   Q   :   -0.283238741   -0.019004452    0.028918010
 544   Q   :    0.123017007   -0.167397385    0.050780870
 545   Q   :   -0.052110148    0.163992053   -0.215931474
 546   Q   :    0.224788686   -0.179396063    0.055024687
 547   Q   :   -0.171540704    0.012321398    0.151644359
 548   Q   :   -0.220568793    0.170938266    0.155279662
 549   Q   :    0.273416778    0.066010534   -0.026591426
 550   Q   :   -0.055575515   -0.241924757   -0.129875417
 551   Q   :   -0.219245930   -0.192273519   -0.093536627
 552   Q   :    0.227541901    0.102092073   -0.178100530
 553   Q   :   -0.009355557    0.098346655    0.282175841
 554   Q   :    0.006555377   -0.007522821   -0.284380983
 555   Q   :   -0.106627152    0.211581182    0.122188358
 556   Q   :    0.099300355   -0.218260881    0.167527527
 557   Q   :   -0.227106594   -0.075236883   -0.148450739
 558   Q   :    0.131653121   -0.151056677    0.157579397
 559   Q   :    0.096677570    0.220823228   -0.004392121
 560   Q   :    0.156508277    0.020885984    0.210572284
 561   Q   :   -0.003645720    0.174960985   -0.223291327
 562   Q   :   -0.162892662   -0.207655855    0.005767081
 563   Q   :    0.293140409   -0.039631655   -0.126367649
 564   Q   :   -0.002954740    0.143171159    0.249815770
 565   Q   :   -0.279772089   -0.109674935   -0.131835872
 566   Q   :    0.202741077    0.072254605    0.152318514
 567   Q   :   -0.075822108   -0.272620198   -0.054756096
 568   Q   :   -0.128329346    0.184703070   -0.093442960
 569   Q   :    0.069102059   -0.247992089    0.096316714
 570   Q   :    0.057488667    0.262807842    0.102059416
 571   Q   :   -0.121814471   -0.011077795   -0.188792430
 572   Q   :   -0.261925113   -0.095771691    0.133653789
 573   Q   :    0.078479678   -0.129129091   -0.253174001
 574   Q   :    0.182245192    0.219272888    0.123228501
 575   Q   :   -0.160124168   -0.093782759    0.214091751
 576   Q   :    0.002770943    0.253791412   -0.120147793
 577   Q   :    0.162343853   -0.171338688   -0.089324187
 578   Q   :   -0.213528231   -0.094185429   -0.053462458
 579   Q   :    0.171781966    0.130653155   -0.138777601
 580   Q   :    0.041613410   -0.029327158    0.187396992
 581   Q   :   -0.078203386    0.153454268    0.193863403
 582   Q   :   -0.004620777    0.066235729   -0.262562570
 583   Q   :    0.066279678   -0.217981117    0.082415990
 584   Q   :   -0.078644377   -0.214252103   -0.132532884
 585   Q   :    0.243674174    0.071691223    0.040647176
 586   Q   :   -0.160359602    0.142919240    0.095674354
 587   Q   :   -0.288024239   -0.023384806    0.100688333
 588   Q   :    0.177049936   -0.194654678   -0.020387759
 589   Q   :    0.102824811    0.227496422   -0.072853686
 590   Q   :   -0.123655463    0.186201088    0.153815078
 591   Q   :    0.261236726    0.005550168   -0.118936332
 592   Q   :   -0.124516182   -0.190887267   -0.034065913
 593   Q   :   -0.123989456    0.179384603   -0.126051997
 594   Q   :    0.251912308   -0.147434740   -0.080944838
 595   Q   :   -0.126181304   -0.035644869    0.211164077
 596   Q   :    0.111117675   -0.227601819    0.074619111
 597   Q   :   -0.164968034    0.153531527    0.180797258
 598   Q   :    0.053071488    0.088080591   -0.242247606
 599   Q   :   -0.188935957   -0.075110562    0.168237474
 600   Q   :   -0.002801726    0.070612295   -0.239973518
 601   Q   :    0.190707564   -0.005039950    0.074886136
 602   Q   :    0.033006743    0.259467137   -0.132323424
 603   Q   :   -0.298961529   -0.087427312    0.088753829
 604   Q   :    0.261755211   -0.171971332    0.032061426
 605   Q   :    0.016799524   -0.198676437    0.146499473
 606   Q   :    0.026650782    0.019172809   -0.251132966
 607   Q   :   -0.036249439    0.182428704    0.096589888
 608   Q   :   -0.002968825    0.255431796   -0.046518948
 609   Q   :   -0.084901386   -0.120761623    0.221002746
 610   Q   :    0.079892530   -0.136455427   -0.175642332

Difference to translation invariance:
           :   -0.0004742221   -0.0003068217   -0.0001405905

Difference to rotation invariance:
           :    0.0096322520   -0.0058440900    0.0073288669

Norm of the cartesian gradient     ...    6.2079723219
RMS gradient                       ...    0.1451189833
MAX gradient                       ...    0.3437678263

-------
TIMINGS
-------

Total SCF gradient time            ...      171.539 sec

One electron gradient       ....      24.229 sec  ( 14.1%)
RI-J Coulomb gradient       ....       9.140 sec  (  5.3%)
COSX gradient               ....     104.100 sec  ( 60.7%)
XC gradient                 ....      14.024 sec  (  8.2%)

Maximum memory used throughout the entire SCFGRAD-calculation: 709.9 MB

                            ***************************************
                            *     ORCA property calculations      *
                            ***************************************

                                    ---------------------
                                    Active property flags
                                    ---------------------
   (+) Dipole Moment


------------------------------------------------------------------------------
                       ORCA ELECTRIC PROPERTIES CALCULATION
------------------------------------------------------------------------------

Dipole Moment Calculation                       ... on
Quadrupole Moment Calculation                   ... off
Polarizability Calculation                      ... off
GBWName                                         ... final047.orca.gbw
Electron density                                ... final047.orca.scfp
The origin for moment calculation is the CENTER OF MASS  = (20.522043, 20.342194 21.142809)

-------------
DIPOLE MOMENT
-------------
                                X             Y             Z
Electronic contribution:      1.43692       1.71569       1.62816
Nuclear contribution   :     15.27770      -9.36937      -5.87551
                        -----------------------------------------
Total Dipole Moment    :     16.71462      -7.65368      -4.24735
                        -----------------------------------------
Magnitude (a.u.)       :     18.86789
Magnitude (Debye)      :     47.95836



--------------------
Rotational spectrum 
--------------------
 
Rotational constants in cm-1:     0.002105     0.001428     0.001334 
Rotational constants in MHz :    63.113072    42.825307    39.991154 

 Dipole components along the rotational axes: 
x,y,z [a.u.] :    -6.982227   -12.925695    11.839431 
x,y,z [Debye]:   -17.747410   -32.854506    30.093442 

 

Timings for individual modules:

Sum of individual times         ...      744.289 sec (=  12.405 min)
GTO integral calculation        ...       12.712 sec (=   0.212 min)   1.7 %
SCF iterations                  ...      555.668 sec (=   9.261 min)  74.7 %
SCF Gradient evaluation         ...      175.909 sec (=   2.932 min)  23.6 %
                             ****ORCA TERMINATED NORMALLY****
TOTAL RUN TIME: 0 days 0 hours 12 minutes 31 seconds 844 msec
