
                                 *****************
                                 * O   R   C   A *
                                 *****************

                                            #,                                       
                                            ###                                      
                                            ####                                     
                                            #####                                    
                                            ######                                   
                                           ########,                                 
                                     ,,################,,,,,                         
                               ,,#################################,,                 
                          ,,##########################################,,             
                       ,#########################################, ''#####,          
                    ,#############################################,,   '####,        
                  ,##################################################,,,,####,       
                ,###########''''           ''''###############################       
              ,#####''   ,,,,##########,,,,          '''####'''          '####       
            ,##' ,,,,###########################,,,                        '##       
           ' ,,###''''                  '''############,,,                           
         ,,##''                                '''############,,,,        ,,,,,,###''
      ,#''                                            '''#######################'''  
     '                                                          ''''####''''         
             ,#######,   #######,   ,#######,      ##                                
            ,#'     '#,  ##    ##  ,#'     '#,    #''#        ######   ,####,        
            ##       ##  ##   ,#'  ##            #'  '#       #        #'  '#        
            ##       ##  #######   ##           ,######,      #####,   #    #        
            '#,     ,#'  ##    ##  '#,     ,#' ,#      #,         ##   #,  ,#        
             '#######'   ##     ##  '#######'  #'      '#     #####' # '####'        



                  #######################################################
                  #                        -***-                        #
                  #          Department of theory and spectroscopy      #
                  #    Directorship and core code : Frank Neese         #
                  #        Max Planck Institute fuer Kohlenforschung    #
                  #                Kaiser Wilhelm Platz 1               #
                  #                 D-45470 Muelheim/Ruhr               #
                  #                      Germany                        #
                  #                                                     #
                  #                  All rights reserved                #
                  #                        -***-                        #
                  #######################################################


                         Program Version 5.0.3 -  RELEASE  -


 With contributions from (in alphabetic order):
   Daniel Aravena         : Magnetic Suceptibility
   Michael Atanasov       : Ab Initio Ligand Field Theory (pilot matlab implementation)
   Alexander A. Auer      : GIAO ZORA, VPT2 properties, NMR spectrum
   Ute Becker             : Parallelization
   Giovanni Bistoni       : ED, misc. LED, open-shell LED, HFLD
   Martin Brehm           : Molecular dynamics
   Dmytro Bykov           : SCF Hessian
   Vijay G. Chilkuri      : MRCI spin determinant printing, contributions to CSF-ICE
   Dipayan Datta          : RHF DLPNO-CCSD density
   Achintya Kumar Dutta   : EOM-CC, STEOM-CC
   Dmitry Ganyushin       : Spin-Orbit,Spin-Spin,Magnetic field MRCI
   Miquel Garcia          : C-PCM and meta-GGA Hessian, CC/C-PCM, Gaussian charge scheme
   Yang Guo               : DLPNO-NEVPT2, F12-NEVPT2, CIM, IAO-localization
   Andreas Hansen         : Spin unrestricted coupled pair/coupled cluster methods
   Benjamin Helmich-Paris : MC-RPA, TRAH-SCF, COSX integrals
   Lee Huntington         : MR-EOM, pCC
   Robert Izsak           : Overlap fitted RIJCOSX, COSX-SCS-MP3, EOM
   Marcus Kettner         : VPT2
   Christian Kollmar      : KDIIS, OOCD, Brueckner-CCSD(T), CCSD density, CASPT2, CASPT2-K
   Simone Kossmann        : Meta GGA functionals, TD-DFT gradient, OOMP2, MP2 Hessian
   Martin Krupicka        : Initial AUTO-CI
   Lucas Lang             : DCDCAS
   Marvin Lechner         : AUTO-CI (C++ implementation), FIC-MRCC
   Dagmar Lenk            : GEPOL surface, SMD
   Dimitrios Liakos       : Extrapolation schemes; Compound Job, initial MDCI parallelization
   Dimitrios Manganas     : Further ROCIS development; embedding schemes
   Dimitrios Pantazis     : SARC Basis sets
   Anastasios Papadopoulos: AUTO-CI, single reference methods and gradients
   Taras Petrenko         : DFT Hessian,TD-DFT gradient, ASA, ECA, R-Raman, ABS, FL, XAS/XES, NRVS
   Peter Pinski           : DLPNO-MP2, DLPNO-MP2 Gradient
   Christoph Reimann      : Effective Core Potentials
   Marius Retegan         : Local ZFS, SOC
   Christoph Riplinger    : Optimizer, TS searches, QM/MM, DLPNO-CCSD(T), (RO)-DLPNO pert. Triples
   Tobias Risthaus        : Range-separated hybrids, TD-DFT gradient, RPA, STAB
   Michael Roemelt        : Original ROCIS implementation
   Masaaki Saitow         : Open-shell DLPNO-CCSD energy and density
   Barbara Sandhoefer     : DKH picture change effects
   Avijit Sen             : IP-ROCIS
   Kantharuban Sivalingam : CASSCF convergence, NEVPT2, FIC-MRCI
   Bernardo de Souza      : ESD, SOC TD-DFT
   Georgi Stoychev        : AutoAux, RI-MP2 NMR, DLPNO-MP2 response
   Willem Van den Heuvel  : Paramagnetic NMR
   Boris Wezisla          : Elementary symmetry handling
   Frank Wennmohs         : Technical directorship


 We gratefully acknowledge several colleagues who have allowed us to
 interface, adapt or use parts of their codes:
   Stefan Grimme, W. Hujo, H. Kruse, P. Pracht,  : VdW corrections, initial TS optimization,
                  C. Bannwarth, S. Ehlert          DFT functionals, gCP, sTDA/sTD-DF
   Ed Valeev, F. Pavosevic, A. Kumar             : LibInt (2-el integral package), F12 methods
   Garnet Chan, S. Sharma, J. Yang, R. Olivares  : DMRG
   Ulf Ekstrom                                   : XCFun DFT Library
   Mihaly Kallay                                 : mrcc  (arbitrary order and MRCC methods)
   Jiri Pittner, Ondrej Demel                    : Mk-CCSD
   Frank Weinhold                                : gennbo (NPA and NBO analysis)
   Christopher J. Cramer and Donald G. Truhlar   : smd solvation model
   Lars Goerigk                                  : TD-DFT with DH, B97 family of functionals
   V. Asgeirsson, H. Jonsson                     : NEB implementation
   FAccTs GmbH                                   : IRC, NEB, NEB-TS, DLPNO-Multilevel, CI-OPT
                                                   MM, QMMM, 2- and 3-layer-ONIOM, Crystal-QMMM,
                                                   LR-CPCM, SF, NACMEs, symmetry and pop. for TD-DFT,
                                                   nearIR, NL-DFT gradient (VV10), updates on ESD,
                                                   ML-optimized integration grids
   S Lehtola, MJT Oliveira, MAL Marques          : LibXC Library
   Liviu Ungur et al                             : ANISO software


 Your calculation uses the libint2 library for the computation of 2-el integrals
 For citations please refer to: http://libint.valeyev.net

 Your ORCA version has been built with support for libXC version: 5.1.0
 For citations please refer to: https://tddft.org/programs/libxc/

 This ORCA versions uses:
   CBLAS   interface :  Fast vector & matrix operations
   LAPACKE interface :  Fast linear algebra routines
   SCALAPACK package :  Parallel linear algebra routines
   Shared memory     :  Shared parallel matrices
   BLAS/LAPACK       :  OpenBLAS 0.3.15  USE64BITINT DYNAMIC_ARCH NO_AFFINITY SkylakeX SINGLE_THREADED
        Core in use  :  SkylakeX
   Copyright (c) 2011-2014, The OpenBLAS Project


================================================================================

----- Orbital basis set information -----
Your calculation utilizes the basis: def2-SVP
   F. Weigend and R. Ahlrichs, Phys. Chem. Chem. Phys. 7, 3297 (2005).

The basis set includes element-specific modifications.

Your calculation utilizes the basis: aug-cc-pVTZ 
    H, B-Ne : Obtained from the ccRepo (grant-hill.group.shef.ac.uk/ccrepo) Feb. 2017
              R. A. Kendall, T. H. Dunning, Jr., R. J. Harrison, J. Chem. Phys. 96, 6796 (1992)
         He : Obtained from the ccRepo (grant-hill.group.shef.ac.uk/ccrepo) Feb. 2017
              D. E. Woon, T. H. Dunning, Jr., J. Chem. Phys. 100, 2975 (1994)
  Li-Be, Na : Obtained from the ccRepo (grant-hill.group.shef.ac.uk/ccrepo) Feb. 2017
              B. P. Prascher, D. E. Woon, K. A. Peterson, T. H. Dunning, Jr., A. K. Wilson, Theor. Chem. Acc. 128, 69 (2011)
         Mg : Obtained from the Peterson Research Group Website (tyr0.chem.wsu.edu/~kipeters) Feb. 2017
              B. P. Prascher, D. E. Woon, K. A. Peterson, T. H. Dunning, Jr., A. K. Wilson, Theor. Chem. Acc. 128, 69 (2011)
      Al-Ar : Obtained from the ccRepo (grant-hill.group.shef.ac.uk/ccrepo) Feb. 2017
              D. E. Woon, T. H. Dunning, Jr., J. Chem. Phys. 98, 1358 (1993)
      Sc-Zn : Obtained from the ccRepo (grant-hill.group.shef.ac.uk/ccrepo) Feb. 2017
              N. B. Balabanov, K. A. Peterson, J. Chem. Phys. 123, 064107 (2005)
              N. B. Balabanov, K. A. Peterson, J. Chem. Phys. 125, 074110 (2006)
      Ga-Kr : Obtained from the ccRepo (grant-hill.group.shef.ac.uk/ccrepo) Feb. 2017
              A. K. Wilson, D. E. Woon, K. A. Peterson, T. H. Dunning, Jr., J. Chem. Phys. 110, 7667 (1999)
     Ag, Au : Obtained from the Peterson Research Group Website (tyr0.chem.wsu.edu/~kipeters) Feb. 2017
              K. A. Peterson, C. Puzzarini, Theor. Chem. Acc. 114, 283 (2005)

Your calculation utilizes the basis: cc-pVTZ 
       H, B-Ne : Obtained from the ccRepo (grant-hill.group.shef.ac.uk/ccrepo) Feb. 2017
                 T. H. Dunning, Jr., J. Chem. Phys. 90, 1007 (1989)
            He : Obtained from the ccRepo (grant-hill.group.shef.ac.uk/ccrepo) Feb. 2017
                 D. E. Woon, T. H. Dunning, Jr., J. Chem. Phys. 100, 2975 (1994)
  Li-Be, Na-Mg : Obtained from the ccRepo (grant-hill.group.shef.ac.uk/ccrepo) Feb. 2017
                 B. P. Prascher, D. E. Woon, K. A. Peterson, T. H. Dunning, Jr., A. K. Wilson, Theor. Chem. Acc. 128, 69 (2011)
         Al-Ar : Obtained from the ccRepo (grant-hill.group.shef.ac.uk/ccrepo) Feb. 2017
                 D. E. Woon, T. H. Dunning, Jr., J. Chem. Phys. 98, 1358 (1993)
            Ca : Obtained from the Peterson Research Group Website (tyr0.chem.wsu.edu/~kipeters) Feb. 2017
                 J. Koput, K. A. Peterson, J. Phys. Chem. 106, 9595 (2002)
         Sc-Zn : Obtained from the ccRepo (grant-hill.group.shef.ac.uk/ccrepo) Feb. 2017
                 N. B. Balabanov, K. A. Peterson, J. Chem. Phys. 123, 064107 (2005)
                 N. B. Balabanov, K. A. Peterson, J. Chem. Phys. 125, 074110 (2006)
         Ga-Kr : Obtained from the ccRepo (grant-hill.group.shef.ac.uk/ccrepo) Feb. 2017
                 A. K. Wilson, D. E. Woon, K. A. Peterson, T. H. Dunning, Jr., J. Chem. Phys. 110, 7667 (1999)
             Y : Obtained from the ccRepo (grant-hill.group.shef.ac.uk/ccrepo) Feb. 2017
                 K. A. Peterson, D. Figgen, M. Dolg, H. Stoll, J. Chem. Phys. 126, 124101 (2007)
        Ag, Au : Obtained from the Peterson Research Group Website (tyr0.chem.wsu.edu/~kipeters) Feb. 2017
                 K. A. Peterson, C. Puzzarini, Theor. Chem. Acc. 114, 283 (2005)

----- AuxJ basis set information -----
Your calculation utilizes the auxiliary basis: def2/J
   F. Weigend, Phys. Chem. Chem. Phys. 8, 1057 (2006).

================================================================================
                                        WARNINGS
                       Please study these warnings very carefully!
================================================================================

WARNING: The globally-selected AuxJ basis set is optimized for use with ECPs
         Make sure a suitable alternative is explicitly given all heavy elements (Z>36)

INFO   : the flag for use of the SHARK integral package has been found!

================================================================================
                                       INPUT FILE
================================================================================
NAME = final057.orca.inp
|  1> ! NoMOPrint PrintBasis #MINIPRINT SMALLPRINT LARGEPRINT
|  2> ! ALLPOP XYZFILE
|  3> #! BP86 3-21G   TightSCF
|  4> ! ENGRAD
|  5> ! B3LYP NormalPNO PModel #DecontractAux
|  6> #! VerySlowConv 
|  7>  %maxcore 5000
|  8>  %scf  maxiter   500  end 
|  9> 
| 10> %pal
| 11>     nprocs 32
| 12> end
| 13> 
| 14> %basis
| 15>     NewGTO O    # New basis for oxygen
| 16>         "aug-cc-pVTZ"
| 17>     end
| 18>     NewGTO C    # New basis for carbon
| 19>         "aug-cc-pVTZ"
| 20>     end
| 21>     NewGTO H    # New basis for hydrogen
| 22>         "cc-pVTZ"
| 23>     end
| 24> end
| 25> 
| 26> * xyz 0   1
| 27>   C  9.82  11.05  9.1  #1
| 28>   H  9.23  11.42  10.01  #2
| 29>   H  9.21  10.57  8.38  #3
| 30>   C  10.95  10.12  9.53  #4
| 31>   H  10.48  9.2  9.89  #5
| 32>   H  11.57  10.02  8.64  #6
| 33>   C  11.98  10.52  10.57  #7
| 34>   H  12.64  11.26  10.08  #8
| 35>   H  12.66  9.67  10.82  #9
| 36>   C  11.39  11.12  11.85  #10
| 37>   H  10.28  11.27  11.73  #11
| 38>   H  11.96  12  12.12  #12
| 39>   O  11.53  10.07  12.89  #13
| 40>   H  11.33  10.52  13.7  #14
| 41>   O  10.43  12.23  8.56  #15
| 42>   H  9.69  12.67  8.16  #16
| 43>   O  12.98  7.88  12.29  #17
| 44>   H  12.42  8.62  12.52  #18
| 45>   H  12.47  7.2  11.75  #19
| 46>   O  14.6  13.05  10.12  #20
| 47>   H  15.42  13.44  9.8  #21
| 48>   H  14.86  12.72  11  #22
| 49>   O  8.89  12.96  6.29  #23
| 50>   H  9.69  12.86  5.8  #24
| 51>   H  8.18  12.98  5.59  #25
| 52>   O  15.35  9.1  11.28  #26
| 53>   H  14.48  8.64  11.31  #27
| 54>   H  15.26  9.78  10.59  #28
| 55>   O  8.82  14.1  11.45  #29
| 56>   H  8.9  15.1  11.48  #30
| 57>   H  8.32  13.91  10.6  #31
| 58>   O  15.14  10.37  8.73  #32
| 59>   H  14.36  9.85  8.49  #33
| 60>   H  14.93  11.29  8.76  #34
| 61>   O  17.98  10.58  9.19  #35
| 62>   H  17.21  10.04  9.17  #36
| 63>   H  18  11.01  8.33  #37
| 64>   O  5.5  13.75  10.65  #38
| 65>   H  5.87  14.35  11.32  #39
| 66>   H  5.47  12.9  11.13  #40
| 67>   O  9.35  16.8  13.14  #41
| 68>   H  9.72  16.18  13.89  #42
| 69>   H  8.54  17.21  13.48  #43
| 70>   O  15.65  7.08  8.77  #44
| 71>   H  15.45  7.15  9.72  #45
| 72>   H  14.82  6.74  8.48  #46
| 73>   O  6.29  12.59  4.3  #47
| 74>   H  5.8  12.36  5.03  #48
| 75>   H  6.49  11.71  3.86  #49
| 76>   O  11.6  9.86  16.67  #50
| 77>   H  12.1  9.14  16.36  #51
| 78>   H  12.19  10.54  16.48  #52
| 79>   O  11.29  5.85  11.42  #53
| 80>   H  10.74  6.15  12.21  #54
| 81>   H  11.66  4.97  11.67  #55
| 82>   O  14.76  9.74  14.42  #56
| 83>   H  14.57  9.62  13.47  #57
| 84>   H  15.62  9.26  14.55  #58
| 85>   O  18.01  7.72  10.95  #59
| 86>   H  18.29  7.28  11.76  #60
| 87>   H  17.18  8.26  11.16  #61
| 88>   O  9.51  9.65  5.29  #62
| 89>   H  9.32  10.53  5.5  #63
| 90>   H  8.83  9.17  5.76  #64
| 91>   O  11.37  6.7  8.78  #65
| 92>   H  11.39  6.38  9.7  #66
| 93>   H  10.46  6.88  8.63  #67
| 94>   O  8.87  15.85  7.03  #68
| 95>   H  8.23  16.13  7.67  #69
| 96>   H  8.65  15.03  6.57  #70
| 97>   O  8.59  9.49  14.33  #71
| 98>   H  8.28  9.16  13.47  #72
| 99>   H  7.99  9.15  14.97  #73
|100>   O  8.65  16.57  9.95  #74
|101>   H  8.38  17.49  9.72  #75
|102>   H  9.5  16.34  9.57  #76
|103>   O  10.12  11.7  14.79  #77
|104>   H  9.39  11.02  14.74  #78
|105>   H  9.62  12.5  14.59  #79
|106>   O  14.94  6.45  13.69  #80
|107>   H  15.28  5.86  13.07  #81
|108>   H  14.33  7.03  13.26  #82
|109>   O  11.3  12.96  4.5  #83
|110>   H  11.45  12.31  3.79  #84
|111>   H  11.41  13.84  4.16  #85
|112>   O  13.18  8.34  7.54  #86
|113>   H  12.48  7.92  8.05  #87
|114>   H  12.76  9.08  7.13  #88
|115>   O  16.54  14.52  8.6  #89
|116>   H  16.66  14.62  7.64  #90
|117>   H  17.39  14.3  8.94  #91
|118>   O  8.25  13.43  13.88  #92
|119>   H  8.45  13.4  12.9  #93
|120>   H  7.49  12.86  14.03  #94
|121>   O  14.94  12.31  13.14  #95
|122>   H  14.17  12.9  13.17  #96
|123>   H  15.04  11.76  13.94  #97
|124>   O  10.73  7.33  14.05  #98
|125>   H  10.65  8.25  13.7  #99
|126>   H  11.66  7.29  14.34  #100
|127>   O  12.76  13.08  7.91  #101
|128>   H  13.25  13.19  8.77  #102
|129>   H  11.92  12.73  8.16  #103
|130>   O  12.68  10.84  6.11  #104
|131>   H  12.22  10.67  5.29  #105
|132>   H  12.54  11.81  6.17  #106
|133>   O  6.18  15.25  12.92  #107
|134>   H  5.58  15.1  13.7  #108
|135>   H  7.04  14.8  13.1  #109
|136>   Q  0.6645  13.15$  2.07$  11.34$
|137>   Q  0.6645  13.74$  1.64$  10.07$
|138>   Q  -1.3290  13.6$  1.55$  10.89$
|139>   Q  0.6645  9.31$  19.66$  9.33$
|140>   Q  0.6645  9.91$  19.33$  10.66$
|141>   Q  -1.3290  9.39$  19.76$  10.18$
|142>   Q  0.6645  13$  11.53$  0.28$
|143>   Q  0.6645  13.61$  12.28$  1.41$
|144>   Q  -1.3290  13.2$  11.63$  1.07$
|145>   Q  0.6645  2.49$  10.1$  11.97$
|146>   Q  0.6645  1.75$  11.13$  11.08$
|147>   Q  -1.3290  2.3$  10.88$  11.71$
|148>   Q  0.6645  12.32$  6.04$  19.64$
|149>   Q  0.6645  12.83$  5.24$  18.33$
|150>   Q  -1.3290  12.73$  5.93$  18.84$
|151>   Q  0.6645  18.53$  8.87$  5.88$
|152>   Q  0.6645  19.86$  9.46$  5.31$
|153>   Q  -1.3290  19.02$  9.41$  5.44$
|154>   Q  0.6645  17.81$  12.19$  18.24$
|155>   Q  0.6645  17.51$  12.49$  16.88$
|156>   Q  -1.3290  17.33$  12.54$  17.66$
|157>   Q  0.6645  10.98$  18.72$  16.71$
|158>   Q  0.6645  10.12$  17.88$  15.72$
|159>   Q  -1.3290  10.28$  18.4$  16.36$
|160>   Q  0.6645  10.41$  15.44$  3.02$
|161>   Q  0.6645  11.02$  14.99$  1.67$
|162>   Q  -1.3290  11.02$  15.21$  2.48$
|163>   Q  0.6645  2.42$  14.17$  9.61$
|164>   Q  0.6645  3.88$  14.33$  10.11$
|165>   Q  -1.3290  3.11$  14.61$  9.88$
|166>   Q  0.6645  9.06$  7.81$  1.82$
|167>   Q  0.6645  10.43$  7.24$  1.19$
|168>   Q  -1.3290  9.65$  7.68$  1.2$
|169>   Q  0.6645  8.34$  5.67$  8.69$
|170>   Q  0.6645  8.17$  7.18$  8.64$
|171>   Q  -1.3290  8.48$  6.49$  8.96$
|172>   Q  0.6645  6.3$  16.42$  16.34$
|173>   Q  0.6645  4.95$  16.99$  15.47$
|174>   Q  -1.3290  5.67$  17$  16.03$
|175>   Q  0.6645  16.38$  7.68$  7.22$
|176>   Q  0.6645  17.05$  6.92$  6.02$
|177>   Q  -1.3290  16.67$  7.61$  6.43$
|178>   Q  0.6645  18.98$  10.04$  14.59$
|179>   Q  0.6645  19.05$  8.43$  14.45$
|180>   Q  -1.3290  19.32$  9.25$  14.45$
|181>   Q  0.6645  1.27$  11.74$  7.37$
|182>   Q  0.6645  1.89$  11.32$  8.52$
|183>   Q  -1.3290  1.91$  11.49$  7.76$
|184>   Q  0.6645  12.84$  3.33$  17.16$
|185>   Q  0.6645  11.85$  2.58$  17.97$
|186>   Q  -1.3290  12.55$  3.01$  17.88$
|187>   Q  0.6645  5.5$  4.02$  8.24$
|188>   Q  0.6645  4.61$  3.66$  6.88$
|189>   Q  -1.3290  4.91$  4.15$  7.57$
|190>   Q  0.6645  6.79$  4.96$  14.95$
|191>   Q  0.6645  6.14$  3.52$  15.36$
|192>   Q  -1.3290  6.68$  4.26$  15.42$
|193>   Q  0.6645  5.64$  12.29$  18.55$
|194>   Q  0.6645  5.31$  11.13$  19.38$
|195>   Q  -1.3290  5.33$  11.93$  19.23$
|196>   Q  0.6645  5.85$  12.8$  9.11$
|197>   Q  0.6645  5.58$  12.31$  7.71$
|198>   Q  -1.3290  5.92$  12.29$  8.48$
|199>   Q  0.6645  13.52$  3.89$  12.79$
|200>   Q  0.6645  12.33$  3.1$  13.42$
|201>   Q  -1.3290  12.78$  3.48$  12.78$
|202>   Q  0.6645  9.54$  2.1$  18.61$
|203>   Q  0.6645  9.76$  2.64$  17.23$
|204>   Q  -1.3290  9.79$  2.07$  17.84$
|205>   Q  0.6645  5.98$  10.56$  12.23$
|206>   Q  0.6645  4.57$  11$  11.95$
|207>   Q  -1.3290  5.39$  11.1$  12.08$
|208>   Q  0.6645  10.08$  17.65$  4.54$
|209>   Q  0.6645  9.91$  16.54$  5.57$
|210>   Q  -1.3290  10.07$  16.85$  4.81$
|211>   Q  0.6645  12.69$  20.57$  6.19$
|212>   Q  0.6645  12.54$  21.86$  5.38$
|213>   Q  -1.3290  12.39$  21.35$  6.01$
|214>   Q  0.6645  6.68$  8.25$  12.05$
|215>   Q  0.6645  7.27$  9.15$  10.98$
|216>   Q  -1.3290  7.2$  8.85$  11.75$
|217>   Q  0.6645  12.23$  17.25$  4.95$
|218>   Q  0.6645  13.36$  16.45$  5.53$
|219>   Q  -1.3290  13.04$  17.09$  5.06$
|220>   Q  0.6645  17.47$  14.62$  5.32$
|221>   Q  0.6645  16.13$  13.75$  5.09$
|222>   Q  -1.3290  16.7$  14.26$  5.49$
|223>   Q  0.6645  6.95$  19.6$  3.58$
|224>   Q  0.6645  6.37$  18.33$  4.28$
|225>   Q  -1.3290  6.76$  19.09$  4.19$
|226>   Q  0.6645  9.89$  17.96$  7.75$
|227>   Q  0.6645  11.19$  18.88$  7.77$
|228>   Q  -1.3290  10.31$  18.69$  7.76$
|229>   Q  0.6645  12.56$  20.42$  12.53$
|230>   Q  0.6645  13.28$  21.77$  12.2$
|231>   Q  -1.3290  12.75$  21.22$  12.62$
|232>   Q  0.6645  12$  15.04$  9.19$
|233>   Q  0.6645  12.34$  16.22$  10.11$
|234>   Q  -1.3290  11.83$  15.77$  9.61$
|235>   Q  0.6645  9.83$  4.83$  16.45$
|236>   Q  0.6645  8.6$  4.06$  15.81$
|237>   Q  -1.3290  9.41$  4.17$  16.11$
|238>   Q  0.6645  16.65$  5.51$  17.26$
|239>   Q  0.6645  16.46$  4.22$  17.86$
|240>   Q  -1.3290  16.71$  4.7$  17.25$
|241>   Q  0.6645  6.91$  6.69$  1.75$
|242>   Q  0.6645  6.73$  7.02$  3.12$
|243>   Q  -1.3290  7.13$  6.64$  2.53$
|244>   Q  0.6645  7.18$  8.57$  7.37$
|245>   Q  0.6645  7.16$  7.37$  6.43$
|246>   Q  -1.3290  7.52$  8.02$  6.84$
|247>   Q  0.6645  9.93$  11.68$  19.24$
|248>   Q  0.6645  10.59$  12.65$  20.21$
|249>   Q  -1.3290  10.59$  12.01$  19.68$
|250>   Q  0.6645  -0.08$  10.13$  10.67$
|251>   Q  0.6645  -0.07$  10.42$  9.21$
|252>   Q  -1.3290  0.21$  10.51$  10.02$
|253>   Q  0.6645  14.88$  8.09$  21.24$
|254>   Q  0.6645  14.38$  8.06$  19.81$
|255>   Q  -1.3290  14.29$  8.19$  20.61$
|256>   Q  0.6645  18.41$  12.51$  14.51$
|257>   Q  0.6645  19.46$  12.21$  15.62$
|258>   Q  -1.3290  18.67$  12.25$  15.27$
|259>   Q  0.6645  15.53$  20.24$  10.92$
|260>   Q  0.6645  15.21$  18.73$  10.44$
|261>   Q  -1.3290  15.42$  19.59$  10.36$
|262>   Q  0.6645  13.64$  7.57$  15.46$
|263>   Q  0.6645  13.25$  6.97$  16.77$
|264>   Q  -1.3290  13.1$  7.41$  16.06$
|265>   Q  0.6645  14.43$  6.87$  4.87$
|266>   Q  0.6645  13.53$  7.32$  5.98$
|267>   Q  -1.3290  13.75$  6.81$  5.35$
|268>   Q  0.6645  8.86$  5.09$  20.6$
|269>   Q  0.6645  9.63$  6.23$  21.32$
|270>   Q  -1.3290  8.96$  5.87$  20.9$
|271>   Q  0.6645  19.95$  17$  16.25$
|272>   Q  0.6645  19.25$  16.25$  15.11$
|273>   Q  -1.3290  19.28$  16.76$  15.79$
|274>   Q  0.6645  8.07$  6.02$  12.65$
|275>   Q  0.6645  8.34$  6.23$  11.08$
|276>   Q  -1.3290  8.12$  5.82$  11.79$
|277>   Q  0.6645  6.7$  6$  18$
|278>   Q  0.6645  5.95$  4.94$  17.2$
|279>   Q  -1.3290  6.05$  5.48$  17.84$
|280>   Q  0.6645  17.35$  4.68$  5.28$
|281>   Q  0.6645  18.7$  5.35$  5.05$
|282>   Q  -1.3290  17.91$  5.28$  5.31$
|283>   Q  0.6645  14.98$  10.75$  19.01$
|284>   Q  0.6645  15.91$  11.2$  17.89$
|285>   Q  -1.3290  15.38$  10.65$  18.29$
|286>   Q  0.6645  10.6$  4.26$  2.47$
|287>   Q  0.6645  11.27$  3.09$  1.73$
|288>   Q  -1.3290  10.63$  3.57$  1.99$
|289>   Q  0.6645  15.82$  9.06$  5.56$
|290>   Q  0.6645  14.81$  10.2$  5.77$
|291>   Q  -1.3290  15.4$  9.78$  5.33$
|292>   Q  0.6645  16.63$  8.13$  15.98$
|293>   Q  0.6645  16.64$  7.54$  14.65$
|294>   Q  -1.3290  16.95$  7.94$  15.25$
|295>   Q  0.6645  13.48$  15.16$  13.99$
|296>   Q  0.6645  12.03$  14.91$  13.33$
|297>   Q  -1.3290  12.8$  14.75$  13.71$
|298>   Q  0.6645  20.46$  8.2$  8.78$
|299>   Q  0.6645  19.26$  9.27$  8.98$
|300>   Q  -1.3290  20.07$  9$  8.84$
|301>   Q  0.6645  5.64$  8.85$  9.04$
|302>   Q  0.6645  6.23$  10.32$  8.85$
|303>   Q  -1.3290  6.24$  9.46$  8.97$
|304>   Q  0.6645  5.09$  7.16$  5.85$
|305>   Q  0.6645  5.42$  5.86$  6.47$
|306>   Q  -1.3290  5.45$  6.42$  5.86$
|307>   Q  0.6645  13.93$  14.96$  21.64$
|308>   Q  0.6645  13.52$  14.67$  20.2$
|309>   Q  -1.3290  13.38$  14.8$  21.02$
|310>   Q  0.6645  4.87$  8.72$  20.65$
|311>   Q  0.6645  6.28$  8.91$  20.11$
|312>   Q  -1.3290  5.58$  9.18$  20.42$
|313>   Q  0.6645  18.24$  14.79$  13.05$
|314>   Q  0.6645  18.36$  16.37$  12.72$
|315>   Q  -1.3290  18.46$  15.63$  13.18$
|316>   Q  0.6645  15.03$  17.48$  17.16$
|317>   Q  0.6645  16.16$  16.55$  17.16$
|318>   Q  -1.3290  15.42$  16.78$  16.95$
|319>   Q  0.6645  13.36$  1.59$  4.21$
|320>   Q  0.6645  12.77$  2.4$  5.44$
|321>   Q  -1.3290  13.35$  1.96$  5$
|322>   Q  0.6645  11.57$  14.06$  21.18$
|323>   Q  0.6645  10.14$  14.68$  21.41$
|324>   Q  -1.3290  10.74$  14.08$  21.37$
|325>   Q  0.6645  14.25$  1.52$  7.17$
|326>   Q  0.6645  13.62$  0.52$  8.03$
|327>   Q  -1.3290  14.03$  1.23$  7.88$
|328>   Q  0.6645  15.83$  19.6$  7.78$
|329>   Q  0.6645  16.22$  18.22$  8.51$
|330>   Q  -1.3290  16.16$  18.79$  7.86$
|331>   Q  0.6645  2.8$  19.35$  4.99$
|332>   Q  0.6645  3.92$  19.05$  5.98$
|333>   Q  -1.3290  3.2$  18.89$  5.6$
|334>   Q  0.6645  4.61$  16.78$  5.44$
|335>   Q  0.6645  5.93$  16.3$  4.73$
|336>   Q  -1.3290  5.24$  16.74$  4.84$
|337>   Q  0.6645  19.78$  13.12$  4.02$
|338>   Q  0.6645  19.98$  12.37$  5.38$
|339>   Q  -1.3290  20.21$  12.73$  4.64$
|340>   Q  0.6645  13.89$  17.83$  12.03$
|341>   Q  0.6645  12.46$  17.97$  11.43$
|342>   Q  -1.3290  13.29$  17.76$  11.44$
|343>   Q  0.6645  16.58$  3.99$  9.08$
|344>   Q  0.6645  15.21$  3.92$  8.72$
|345>   Q  -1.3290  15.81$  3.98$  9.28$
|346>   Q  0.6645  15.59$  4.14$  11.39$
|347>   Q  0.6645  16.23$  3.89$  12.72$
|348>   Q  -1.3290  15.63$  4.15$  12.21$
|349>   Q  0.6645  4.61$  12.16$  0.28$
|350>   Q  0.6645  5.08$  10.65$  0.03$
|351>   Q  -1.3290  4.71$  11.31$  0.47$
|352>   Q  0.6645  7.08$  1.96$  11.4$
|353>   Q  0.6645  7.94$  3.25$  11.51$
|354>   Q  -1.3290  7.37$  2.68$  11.72$
|355>   Q  0.6645  14.74$  16.7$  10.12$
|356>   Q  0.6645  15.96$  16.01$  9.42$
|357>   Q  -1.3290  15.52$  16.63$  9.85$
|358>   Q  0.6645  20.47$  9.16$  12.79$
|359>   Q  0.6645  20.19$  8.83$  11.38$
|360>   Q  -1.3290  20.68$  9$  12.02$
|361>   Q  0.6645  10.11$  4.21$  10.66$
|362>   Q  0.6645  10.11$  2.66$  10.27$
|363>   Q  -1.3290  9.88$  3.48$  10.25$
|364>   Q  0.6645  16.77$  11.53$  3.16$
|365>   Q  0.6645  17.26$  10.15$  3.68$
|366>   Q  -1.3290  17.12$  10.75$  3.09$
|367>   Q  0.6645  14.63$  14.4$  1.77$
|368>   Q  0.6645  13.27$  14.13$  2.54$
|369>   Q  -1.3290  14.02$  13.92$  2.12$
|370>   Q  0.6645  7.55$  10.8$  2.11$
|371>   Q  0.6645  6.07$  11.06$  2.07$
|372>   Q  -1.3290  6.76$  10.66$  2.35$
|373>   Q  0.6645  10.88$  7.19$  17.11$
|374>   Q  0.6645  10.08$  7.11$  15.78$
|375>   Q  -1.3290  10.19$  7.01$  16.65$
|376>   Q  0.6645  20.41$  15.72$  10.74$
|377>   Q  0.6645  21.82$  16.24$  11.21$
|378>   Q  -1.3290  21.25$  15.91$  10.67$
|379>   Q  0.6645  12.55$  11.18$  20.12$
|380>   Q  0.6645  13.48$  10.05$  20.49$
|381>   Q  -1.3290  13.3$  10.84$  20.39$
|382>   Q  0.6645  19.11$  13.45$  10.07$
|383>   Q  0.6645  19.45$  14.4$  8.96$
|384>   Q  -1.3290  19.07$  14.19$  9.66$
|385>   Q  0.6645  11.08$  12.67$  17.38$
|386>   Q  0.6645  11.24$  12.98$  15.9$
|387>   Q  -1.3290  11.34$  13.1$  16.73$
|388>   Q  0.6645  9.07$  8.69$  21.15$
|389>   Q  0.6645  8.36$  10.02$  20.78$
|390>   Q  -1.3290  8.59$  9.21$  20.67$
|391>   Q  0.6645  5.84$  9.04$  15.85$
|392>   Q  0.6645  6.75$  9.09$  17.12$
|393>   Q  -1.3290  6.57$  9$  16.29$
|394>   Q  0.6645  7.43$  14.26$  16.53$
|395>   Q  0.6645  8.14$  15.44$  17.3$
|396>   Q  -1.3290  7.72$  15.06$  16.66$
|397>   Q  0.6645  5.5$  12.04$  13.93$
|398>   Q  0.6645  4.93$  12.77$  15.1$
|399>   Q  -1.3290  5.54$  12.54$  14.6$
|400>   Q  0.6645  4.36$  4.5$  3.43$
|401>   Q  0.6645  5.43$  5.51$  3.4$
|402>   Q  -1.3290  4.88$  5.02$  3.05$
|403>   Q  0.6645  4.73$  4.44$  11.27$
|404>   Q  0.6645  6.13$  4.65$  11.03$
|405>   Q  -1.3290  5.36$  4.92$  11.01$
|406>   Q  0.6645  15.84$  7.47$  18.32$
|407>   Q  0.6645  15.52$  8.88$  17.73$
|408>   Q  -1.3290  15.6$  8.02$  17.69$
|409>   Q  0.6645  17.74$  12.91$  6.27$
|410>   Q  0.6645  18.33$  11.43$  5.91$
|411>   Q  -1.3290  18.17$  12.15$  6.38$
|412>   Q  0.6645  1.5$  12.32$  13.62$
|413>   Q  0.6645  1.25$  13.55$  14.65$
|414>   Q  -1.3290  1.42$  12.71$  14.4$
|415>   Q  0.6645  4.05$  16.1$  7.67$
|416>   Q  0.6645  2.73$  15.81$  7.22$
|417>   Q  -1.3290  3.54$  15.8$  7.08$
|418>   Q  0.6645  10.72$  20.95$  14.31$
|419>   Q  0.6645  9.76$  20$  14.92$
|420>   Q  -1.3290  10.05$  20.44$  14.31$
|421>   Q  0.6645  5.74$  17.69$  9.18$
|422>   Q  0.6645  5.58$  17.84$  7.59$
|423>   Q  -1.3290  5.67$  17.43$  8.38$
|424>   Q  0.6645  3.57$  7.19$  8.84$
|425>   Q  0.6645  4.67$  6.65$  9.82$
|426>   Q  -1.3290  4.24$  7.25$  9.37$
|427>   Q  0.6645  2.92$  10.33$  5.71$
|428>   Q  0.6645  2.86$  8.84$  5.36$
|429>   Q  -1.3290  3.19$  9.64$  5.33$
|430>   Q  0.6645  6.62$  11.94$  16.57$
|431>   Q  0.6645  7.71$  11.88$  17.54$
|432>   Q  -1.3290  7$  12.17$  17.26$
|433>   Q  0.6645  14.78$  2.87$  4.95$
|434>   Q  0.6645  15.64$  3.34$  3.79$
|435>   Q  -1.3290  15.39$  3.33$  4.57$
|436>   Q  0.6645  9.25$  15.49$  15.71$
|437>   Q  0.6645  10.79$  15$  15.92$
|438>   Q  -1.3290  10.14$  15.47$  15.59$
|439>   Q  0.6645  16.94$  17.3$  11.29$
|440>   Q  0.6645  16.82$  17.76$  12.61$
|441>   Q  -1.3290  17.24$  17.66$  11.9$
|442>   Q  0.6645  14.97$  12.16$  20.85$
|443>   Q  0.6645  15.59$  13.34$  20.17$
|444>   Q  -1.3290  15.54$  12.76$  20.75$
|445>   Q  0.6645  7.75$  15.17$  3.45$
|446>   Q  0.6645  8.22$  16.14$  4.43$
|447>   Q  -1.3290  7.73$  15.53$  4.19$
|448>   Q  0.6645  6.13$  18.61$  11.47$
|449>   Q  0.6645  6.19$  19.85$  10.5$
|450>   Q  -1.3290  5.94$  19.07$  10.73$
|451>   Q  0.6645  20.36$  11.76$  11$
|452>   Q  0.6645  19.12$  11.26$  10.29$
|453>   Q  -1.3290  19.6$  11.84$  10.65$
|454>   Q  0.6645  6.66$  12.19$  20.58$
|455>   Q  0.6645  7.25$  12.06$  22.05$
|456>   Q  -1.3290  7.26$  12.01$  21.19$
|457>   Q  0.6645  10.5$  6.28$  3.8$
|458>   Q  0.6645  9.16$  5.95$  3.05$
|459>   Q  -1.3290  9.87$  5.8$  3.47$
|460>   Q  0.6645  5.63$  13.94$  3.17$
|461>   Q  0.6645  4.87$  15.26$  3.26$
|462>   Q  -1.3290  5.15$  14.56$  2.87$
|463>   Q  0.6645  17.4$  5.87$  8.75$
|464>   Q  0.6645  18.08$  5.29$  7.58$
|465>   Q  -1.3290  18$  5.41$  8.38$
|466>   Q  0.6645  15.22$  19.18$  13.92$
|467>   Q  0.6645  14.97$  17.67$  13.99$
|468>   Q  -1.3290  15.04$  18.42$  13.6$
|469>   Q  0.6645  6.22$  1.68$  5.39$
|470>   Q  0.6645  7.59$  2.34$  5.19$
|471>   Q  -1.3290  7.06$  1.72$  5.35$
|472>   Q  0.6645  17.88$  3.76$  15.04$
|473>   Q  0.6645  17.85$  2.86$  13.79$
|474>   Q  -1.3290  17.69$  3.54$  14.22$
|475>   Q  0.6645  13.76$  18.97$  8.14$
|476>   Q  0.6645  13.44$  18.32$  6.85$
|477>   Q  -1.3290  13.31$  18.9$  7.45$
|478>   Q  0.6645  2.25$  16.89$  12.17$
|479>   Q  0.6645  2.5$  16.23$  10.7$
|480>   Q  -1.3290  2.17$  16.74$  11.33$
|481>   Q  0.6645  2.18$  6.96$  6.48$
|482>   Q  0.6645  1.65$  6.7$  5.05$
|483>   Q  -1.3290  1.95$  7.19$  5.68$
|484>   Q  0.6645  15.44$  15.9$  15.16$
|485>   Q  0.6645  15.75$  15.11$  13.83$
|486>   Q  -1.3290  15.35$  15.71$  14.33$
|487>   Q  0.6645  10.49$  19.33$  12.73$
|488>   Q  0.6645  10.6$  17.93$  12.52$
|489>   Q  -1.3290  10.78$  18.69$  12.3$
|490>   Q  0.6645  14.57$  12.75$  3.61$
|491>   Q  0.6645  15.17$  11.53$  4.43$
|492>   Q  -1.3290  15.09$  12.35$  4.17$
|493>   Q  0.6645  19.87$  6.12$  8.74$
|494>   Q  0.6645  20.97$  6.13$  7.7$
|495>   Q  -1.3290  20.58$  6.41$  8.38$
|496>   Q  0.6645  2.03$  7.96$  11.56$
|497>   Q  0.6645  3.29$  8.33$  10.71$
|498>   Q  -1.3290  2.8$  8.3$  11.4$
|499>   Q  0.6645  14.96$  9.71$  2.87$
|500>   Q  0.6645  14.14$  9.87$  1.6$
|501>   Q  -1.3290  14.49$  9.44$  2.21$
|502>   Q  0.6645  17.5$  14.48$  17.64$
|503>   Q  0.6645  18.25$  15.71$  17.08$
|504>   Q  -1.3290  17.74$  15.28$  17.59$
|505>   Q  0.6645  11$  0.64$  7.5$
|506>   Q  0.6645  10.51$  0.77$  8.97$
|507>   Q  -1.3290  10.61$  0.98$  8.16$
|508>   Q  0.6645  6.58$  17.15$  13.19$
|509>   Q  0.6645  6.42$  18.62$  13.69$
|510>   Q  -1.3290  6.63$  18$  13.13$
|511>   Q  0.6645  12.52$  7.01$  21.62$
|512>   Q  0.6645  12.43$  5.61$  22.22$
|513>   Q  -1.3290  12.13$  6.3$  21.82$
|514>   Q  0.6645  9.8$  10.25$  17.48$
|515>   Q  0.6645  8.89$  9.72$  18.46$
|516>   Q  -1.3290  9.16$  10.33$  17.99$
|517>   Q  0.6645  14.91$  4.61$  16.44$
|518>   Q  0.6645  13.91$  4.75$  15.4$
|519>   Q  -1.3290  14.16$  4.67$  16.16$
|520>   Q  0.6645  8.17$  7.29$  19.11$
|521>   Q  0.6645  8.4$  7.09$  17.63$
|522>   Q  -1.3290  7.94$  7.23$  18.31$
|523>   Q  0.6645  10.85$  3.28$  15.13$
|524>   Q  0.6645  11.8$  2.02$  15.44$
|525>   Q  -1.3290  11.57$  2.78$  15.1$
|526>   Q  0.6645  19.43$  15.85$  7.07$
|527>   Q  0.6645  20.95$  15.35$  7.07$
|528>   Q  -1.3290  20.12$  15.34$  7.24$
|529>   Q  0.6645  6.79$  15.71$  1.67$
|530>   Q  0.6645  6.53$  17.1$  1.06$
|531>   Q  -1.3290  7$  16.51$  1.44$
|532>   Q  0.6645  4.03$  7.43$  12.71$
|533>   Q  0.6645  4.91$  6.34$  12.04$
|534>   Q  -1.3290  4.62$  6.84$  12.67$
|535>   Q  0.6645  6.74$  16.16$  19.68$
|536>   Q  0.6645  8.2$  16.41$  19.96$
|537>   Q  -1.3290  7.54$  16.27$  19.46$
|538>   Q  0.6645  16.01$  17.53$  3.42$
|539>   Q  0.6645  14.6$  17.15$  3.85$
|540>   Q  -1.3290  15.25$  17.13$  3.36$
|541>   Q  0.6645  14.55$  15.26$  17.7$
|542>   Q  0.6645  13.27$  14.34$  17.81$
|543>   Q  -1.3290  13.95$  14.77$  18.1$
|544>   Q  0.6645  14.78$  7.37$  2.45$
|545>   Q  0.6645  16.26$  6.89$  2.77$
|546>   Q  -1.3290  15.39$  6.78$  2.7$
|547>   Q  0.6645  3.53$  12.68$  6.73$
|548>   Q  0.6645  4.24$  14.08$  6.43$
|549>   Q  -1.3290  4.2$  13.22$  6.51$
|550>   Q  0.6645  3.23$  12.49$  17.06$
|551>   Q  0.6645  2.67$  12.4$  15.59$
|552>   Q  -1.3290  3.23$  12.23$  16.22$
|553>   Q  0.6645  11.31$  9.73$  3.13$
|554>   Q  0.6645  12.28$  10.68$  2.37$
|555>   Q  -1.3290  11.69$  10.45$  2.97$
|556>   Q  0.6645  11.63$  19.35$  2.51$
|557>   Q  0.6645  10.51$  19.92$  3.5$
|558>   Q  -1.3290  10.89$  19.75$  2.77$
|559>   Q  0.6645  20.89$  12.62$  7.26$
|560>   Q  0.6645  20.44$  11.2$  7.52$
|561>   Q  -1.3290  21.02$  11.8$  7.44$
|562>   Q  0.6645  2.12$  5.68$  8.53$
|563>   Q  0.6645  0.95$  6.58$  8.3$
|564>   Q  -1.3290  1.75$  6.37$  8.28$
|565>   Q  0.6645  8.22$  3.69$  8.89$
|566>   Q  0.6645  7.76$  3.48$  7.42$
|567>   Q  -1.3290  7.67$  3.64$  8.23$
|568>   Q  0.6645  8.75$  13.12$  1.93$
|569>   Q  0.6645  8.4$  14.34$  1.14$
|570>   Q  -1.3290  8.32$  13.8$  1.76$
|571>   Q  0.6645  17.63$  17.8$  6.58$
|572>   Q  0.6645  17.15$  16.51$  5.79$
|573>   Q  -1.3290  17.71$  17.06$  6.13$
|574>   Q  0.6645  11.06$  3.1$  7.34$
|575>   Q  0.6645  11.39$  4.56$  6.82$
|576>   Q  -1.3290  11.35$  3.7$  6.81$
|577>   Q  0.6645  5$  8.79$  4.18$
|578>   Q  0.6645  6.01$  8.99$  3.04$
|579>   Q  -1.3290  5.48$  8.57$  3.53$
|580>   Q  0.6645  18.99$  5.66$  17.16$
|581>   Q  0.6645  18.54$  7.01$  16.45$
|582>   Q  -1.3290  18.85$  6.51$  17.07$
|583>   Q  0.6645  10.04$  0.14$  11.16$
|584>   Q  0.6645  11.36$  0.84$  11.51$
|585>   Q  -1.3290  10.58$  0.79$  11.16$
|586>   Q  0.6645  3.62$  10.35$  15.82$
|587>   Q  0.6645  3.49$  8.81$  15.66$
|588>   Q  -1.3290  3.89$  9.54$  15.69$
|589>   Q  0.6645  9.98$  10.77$  1.77$
|590>   Q  0.6645  9.41$  11.58$  0.56$
|591>   Q  -1.3290  9.42$  11.24$  1.33$
|592>   Q  0.6645  9.89$  3.58$  5.57$
|593>   Q  0.6645  8.89$  4.38$  4.9$
|594>   Q  -1.3290  9.09$  3.79$  5.39$
|595>   Q  0.6645  17.12$  1.6$  6.47$
|596>   Q  0.6645  16.21$  2.82$  6.37$
|597>   Q  -1.3290  16.79$  2.35$  6.71$
|598>   Q  0.6645  19.75$  6.29$  13.76$
|599>   Q  0.6645  18.45$  5.51$  13.78$
|600>   Q  -1.3290  19.05$  5.97$  13.43$
|601>   Q  0.6645  3.28$  10.42$  1.59$
|602>   Q  0.6645  2.97$  9.86$  3.02$
|603>   Q  -1.3290  3$  9.83$  2.16$
|604>   Q  0.6645  13.58$  14.57$  7.03$
|605>   Q  0.6645  14.89$  15.13$  6.25$
|606>   Q  -1.3290  14.15$  15.17$  6.74$
|607>   Q  0.6645  12.22$  7.69$  4.59$
|608>   Q  0.6645  10.73$  8.34$  4.8$
|609>   Q  -1.3290  11.39$  7.96$  4.38$
|610>   Q  0.6645  13.18$  3.87$  7.33$
|611>   Q  0.6645  14.19$  4.55$  6.31$
|612>   Q  -1.3290  13.92$  4.24$  7.09$
|613>   Q  0.6645  5.92$  6.68$  13.94$
|614>   Q  0.6645  6.92$  7.31$  15$
|615>   Q  -1.3290  6.64$  6.78$  14.38$
|616>   Q  0.6645  9.67$  19.37$  6.09$
|617>   Q  0.6645  8.55$  19.64$  5.06$
|618>   Q  -1.3290  9.34$  19.46$  5.3$
|619>   Q  0.6645  3.69$  17.87$  13.99$
|620>   Q  0.6645  3.04$  16.63$  14.64$
|621>   Q  -1.3290  3.68$  17.08$  14.28$
|622>   Q  0.6645  6.57$  20.58$  7.19$
|623>   Q  0.6645  5.95$  19.99$  5.85$
|624>   Q  -1.3290  5.96$  20.19$  6.7$
|625>   Q  0.6645  18.51$  7.72$  2.32$
|626>   Q  0.6645  17.38$  8.62$  2.08$
|627>   Q  -1.3290  17.72$  7.89$  2.26$
|628>   Q  0.6645  8.7$  16.63$  22.37$
|629>   Q  0.6645  10.14$  16.91$  21.79$
|630>   Q  -1.3290  9.38$  16.52$  21.83$
|631>   Q  0.6645  2$  14.13$  3.36$
|632>   Q  0.6645  3.02$  13.85$  2.4$
|633>   Q  -1.3290  2.3$  13.72$  2.72$
|634>   Q  0.6645  16.8$  12.57$  12.91$
|635>   Q  0.6645  18.15$  12.63$  11.97$
|636>   Q  -1.3290  17.64$  12.77$  12.65$
|637> *
|638> 
|639>                          ****END OF INPUT****
================================================================================

                     *******************************
                     * Energy+Gradient Calculation *
                     *******************************

---------------------------------
CARTESIAN COORDINATES (ANGSTROEM)
---------------------------------
  C      9.820000   11.050000    9.100000
  H      9.230000   11.420000   10.010000
  H      9.210000   10.570000    8.380000
  C     10.950000   10.120000    9.530000
  H     10.480000    9.200000    9.890000
  H     11.570000   10.020000    8.640000
  C     11.980000   10.520000   10.570000
  H     12.640000   11.260000   10.080000
  H     12.660000    9.670000   10.820000
  C     11.390000   11.120000   11.850000
  H     10.280000   11.270000   11.730000
  H     11.960000   12.000000   12.120000
  O     11.530000   10.070000   12.890000
  H     11.330000   10.520000   13.700000
  O     10.430000   12.230000    8.560000
  H      9.690000   12.670000    8.160000
  O     12.980000    7.880000   12.290000
  H     12.420000    8.620000   12.520000
  H     12.470000    7.200000   11.750000
  O     14.600000   13.050000   10.120000
  H     15.420000   13.440000    9.800000
  H     14.860000   12.720000   11.000000
  O      8.890000   12.960000    6.290000
  H      9.690000   12.860000    5.800000
  H      8.180000   12.980000    5.590000
  O     15.350000    9.100000   11.280000
  H     14.480000    8.640000   11.310000
  H     15.260000    9.780000   10.590000
  O      8.820000   14.100000   11.450000
  H      8.900000   15.100000   11.480000
  H      8.320000   13.910000   10.600000
  O     15.140000   10.370000    8.730000
  H     14.360000    9.850000    8.490000
  H     14.930000   11.290000    8.760000
  O     17.980000   10.580000    9.190000
  H     17.210000   10.040000    9.170000
  H     18.000000   11.010000    8.330000
  O      5.500000   13.750000   10.650000
  H      5.870000   14.350000   11.320000
  H      5.470000   12.900000   11.130000
  O      9.350000   16.800000   13.140000
  H      9.720000   16.180000   13.890000
  H      8.540000   17.210000   13.480000
  O     15.650000    7.080000    8.770000
  H     15.450000    7.150000    9.720000
  H     14.820000    6.740000    8.480000
  O      6.290000   12.590000    4.300000
  H      5.800000   12.360000    5.030000
  H      6.490000   11.710000    3.860000
  O     11.600000    9.860000   16.670000
  H     12.100000    9.140000   16.360000
  H     12.190000   10.540000   16.480000
  O     11.290000    5.850000   11.420000
  H     10.740000    6.150000   12.210000
  H     11.660000    4.970000   11.670000
  O     14.760000    9.740000   14.420000
  H     14.570000    9.620000   13.470000
  H     15.620000    9.260000   14.550000
  O     18.010000    7.720000   10.950000
  H     18.290000    7.280000   11.760000
  H     17.180000    8.260000   11.160000
  O      9.510000    9.650000    5.290000
  H      9.320000   10.530000    5.500000
  H      8.830000    9.170000    5.760000
  O     11.370000    6.700000    8.780000
  H     11.390000    6.380000    9.700000
  H     10.460000    6.880000    8.630000
  O      8.870000   15.850000    7.030000
  H      8.230000   16.130000    7.670000
  H      8.650000   15.030000    6.570000
  O      8.590000    9.490000   14.330000
  H      8.280000    9.160000   13.470000
  H      7.990000    9.150000   14.970000
  O      8.650000   16.570000    9.950000
  H      8.380000   17.490000    9.720000
  H      9.500000   16.340000    9.570000
  O     10.120000   11.700000   14.790000
  H      9.390000   11.020000   14.740000
  H      9.620000   12.500000   14.590000
  O     14.940000    6.450000   13.690000
  H     15.280000    5.860000   13.070000
  H     14.330000    7.030000   13.260000
  O     11.300000   12.960000    4.500000
  H     11.450000   12.310000    3.790000
  H     11.410000   13.840000    4.160000
  O     13.180000    8.340000    7.540000
  H     12.480000    7.920000    8.050000
  H     12.760000    9.080000    7.130000
  O     16.540000   14.520000    8.600000
  H     16.660000   14.620000    7.640000
  H     17.390000   14.300000    8.940000
  O      8.250000   13.430000   13.880000
  H      8.450000   13.400000   12.900000
  H      7.490000   12.860000   14.030000
  O     14.940000   12.310000   13.140000
  H     14.170000   12.900000   13.170000
  H     15.040000   11.760000   13.940000
  O     10.730000    7.330000   14.050000
  H     10.650000    8.250000   13.700000
  H     11.660000    7.290000   14.340000
  O     12.760000   13.080000    7.910000
  H     13.250000   13.190000    8.770000
  H     11.920000   12.730000    8.160000
  O     12.680000   10.840000    6.110000
  H     12.220000   10.670000    5.290000
  H     12.540000   11.810000    6.170000
  O      6.180000   15.250000   12.920000
  H      5.580000   15.100000   13.700000
  H      7.040000   14.800000   13.100000
  Q     13.150000    2.070000   11.340000
  Q     13.740000    1.640000   10.070000
  Q     13.600000    1.550000   10.890000
  Q      9.310000   19.660000    9.330000
  Q      9.910000   19.330000   10.660000
  Q      9.390000   19.760000   10.180000
  Q     13.000000   11.530000    0.280000
  Q     13.610000   12.280000    1.410000
  Q     13.200000   11.630000    1.070000
  Q      2.490000   10.100000   11.970000
  Q      1.750000   11.130000   11.080000
  Q      2.300000   10.880000   11.710000
  Q     12.320000    6.040000   19.640000
  Q     12.830000    5.240000   18.330000
  Q     12.730000    5.930000   18.840000
  Q     18.530000    8.870000    5.880000
  Q     19.860000    9.460000    5.310000
  Q     19.020000    9.410000    5.440000
  Q     17.810000   12.190000   18.240000
  Q     17.510000   12.490000   16.880000
  Q     17.330000   12.540000   17.660000
  Q     10.980000   18.720000   16.710000
  Q     10.120000   17.880000   15.720000
  Q     10.280000   18.400000   16.360000
  Q     10.410000   15.440000    3.020000
  Q     11.020000   14.990000    1.670000
  Q     11.020000   15.210000    2.480000
  Q      2.420000   14.170000    9.610000
  Q      3.880000   14.330000   10.110000
  Q      3.110000   14.610000    9.880000
  Q      9.060000    7.810000    1.820000
  Q     10.430000    7.240000    1.190000
  Q      9.650000    7.680000    1.200000
  Q      8.340000    5.670000    8.690000
  Q      8.170000    7.180000    8.640000
  Q      8.480000    6.490000    8.960000
  Q      6.300000   16.420000   16.340000
  Q      4.950000   16.990000   15.470000
  Q      5.670000   17.000000   16.030000
  Q     16.380000    7.680000    7.220000
  Q     17.050000    6.920000    6.020000
  Q     16.670000    7.610000    6.430000
  Q     18.980000   10.040000   14.590000
  Q     19.050000    8.430000   14.450000
  Q     19.320000    9.250000   14.450000
  Q      1.270000   11.740000    7.370000
  Q      1.890000   11.320000    8.520000
  Q      1.910000   11.490000    7.760000
  Q     12.840000    3.330000   17.160000
  Q     11.850000    2.580000   17.970000
  Q     12.550000    3.010000   17.880000
  Q      5.500000    4.020000    8.240000
  Q      4.610000    3.660000    6.880000
  Q      4.910000    4.150000    7.570000
  Q      6.790000    4.960000   14.950000
  Q      6.140000    3.520000   15.360000
  Q      6.680000    4.260000   15.420000
  Q      5.640000   12.290000   18.550000
  Q      5.310000   11.130000   19.380000
  Q      5.330000   11.930000   19.230000
  Q      5.850000   12.800000    9.110000
  Q      5.580000   12.310000    7.710000
  Q      5.920000   12.290000    8.480000
  Q     13.520000    3.890000   12.790000
  Q     12.330000    3.100000   13.420000
  Q     12.780000    3.480000   12.780000
  Q      9.540000    2.100000   18.610000
  Q      9.760000    2.640000   17.230000
  Q      9.790000    2.070000   17.840000
  Q      5.980000   10.560000   12.230000
  Q      4.570000   11.000000   11.950000
  Q      5.390000   11.100000   12.080000
  Q     10.080000   17.650000    4.540000
  Q      9.910000   16.540000    5.570000
  Q     10.070000   16.850000    4.810000
  Q     12.690000   20.570000    6.190000
  Q     12.540000   21.860000    5.380000
  Q     12.390000   21.350000    6.010000
  Q      6.680000    8.250000   12.050000
  Q      7.270000    9.150000   10.980000
  Q      7.200000    8.850000   11.750000
  Q     12.230000   17.250000    4.950000
  Q     13.360000   16.450000    5.530000
  Q     13.040000   17.090000    5.060000
  Q     17.470000   14.620000    5.320000
  Q     16.130000   13.750000    5.090000
  Q     16.700000   14.260000    5.490000
  Q      6.950000   19.600000    3.580000
  Q      6.370000   18.330000    4.280000
  Q      6.760000   19.090000    4.190000
  Q      9.890000   17.960000    7.750000
  Q     11.190000   18.880000    7.770000
  Q     10.310000   18.690000    7.760000
  Q     12.560000   20.420000   12.530000
  Q     13.280000   21.770000   12.200000
  Q     12.750000   21.220000   12.620000
  Q     12.000000   15.040000    9.190000
  Q     12.340000   16.220000   10.110000
  Q     11.830000   15.770000    9.610000
  Q      9.830000    4.830000   16.450000
  Q      8.600000    4.060000   15.810000
  Q      9.410000    4.170000   16.110000
  Q     16.650000    5.510000   17.260000
  Q     16.460000    4.220000   17.860000
  Q     16.710000    4.700000   17.250000
  Q      6.910000    6.690000    1.750000
  Q      6.730000    7.020000    3.120000
  Q      7.130000    6.640000    2.530000
  Q      7.180000    8.570000    7.370000
  Q      7.160000    7.370000    6.430000
  Q      7.520000    8.020000    6.840000
  Q      9.930000   11.680000   19.240000
  Q     10.590000   12.650000   20.210000
  Q     10.590000   12.010000   19.680000
  Q     -0.080000   10.130000   10.670000
  Q     -0.070000   10.420000    9.210000
  Q      0.210000   10.510000   10.020000
  Q     14.880000    8.090000   21.240000
  Q     14.380000    8.060000   19.810000
  Q     14.290000    8.190000   20.610000
  Q     18.410000   12.510000   14.510000
  Q     19.460000   12.210000   15.620000
  Q     18.670000   12.250000   15.270000
  Q     15.530000   20.240000   10.920000
  Q     15.210000   18.730000   10.440000
  Q     15.420000   19.590000   10.360000
  Q     13.640000    7.570000   15.460000
  Q     13.250000    6.970000   16.770000
  Q     13.100000    7.410000   16.060000
  Q     14.430000    6.870000    4.870000
  Q     13.530000    7.320000    5.980000
  Q     13.750000    6.810000    5.350000
  Q      8.860000    5.090000   20.600000
  Q      9.630000    6.230000   21.320000
  Q      8.960000    5.870000   20.900000
  Q     19.950000   17.000000   16.250000
  Q     19.250000   16.250000   15.110000
  Q     19.280000   16.760000   15.790000
  Q      8.070000    6.020000   12.650000
  Q      8.340000    6.230000   11.080000
  Q      8.120000    5.820000   11.790000
  Q      6.700000    6.000000   18.000000
  Q      5.950000    4.940000   17.200000
  Q      6.050000    5.480000   17.840000
  Q     17.350000    4.680000    5.280000
  Q     18.700000    5.350000    5.050000
  Q     17.910000    5.280000    5.310000
  Q     14.980000   10.750000   19.010000
  Q     15.910000   11.200000   17.890000
  Q     15.380000   10.650000   18.290000
  Q     10.600000    4.260000    2.470000
  Q     11.270000    3.090000    1.730000
  Q     10.630000    3.570000    1.990000
  Q     15.820000    9.060000    5.560000
  Q     14.810000   10.200000    5.770000
  Q     15.400000    9.780000    5.330000
  Q     16.630000    8.130000   15.980000
  Q     16.640000    7.540000   14.650000
  Q     16.950000    7.940000   15.250000
  Q     13.480000   15.160000   13.990000
  Q     12.030000   14.910000   13.330000
  Q     12.800000   14.750000   13.710000
  Q     20.460000    8.200000    8.780000
  Q     19.260000    9.270000    8.980000
  Q     20.070000    9.000000    8.840000
  Q      5.640000    8.850000    9.040000
  Q      6.230000   10.320000    8.850000
  Q      6.240000    9.460000    8.970000
  Q      5.090000    7.160000    5.850000
  Q      5.420000    5.860000    6.470000
  Q      5.450000    6.420000    5.860000
  Q     13.930000   14.960000   21.640000
  Q     13.520000   14.670000   20.200000
  Q     13.380000   14.800000   21.020000
  Q      4.870000    8.720000   20.650000
  Q      6.280000    8.910000   20.110000
  Q      5.580000    9.180000   20.420000
  Q     18.240000   14.790000   13.050000
  Q     18.360000   16.370000   12.720000
  Q     18.460000   15.630000   13.180000
  Q     15.030000   17.480000   17.160000
  Q     16.160000   16.550000   17.160000
  Q     15.420000   16.780000   16.950000
  Q     13.360000    1.590000    4.210000
  Q     12.770000    2.400000    5.440000
  Q     13.350000    1.960000    5.000000
  Q     11.570000   14.060000   21.180000
  Q     10.140000   14.680000   21.410000
  Q     10.740000   14.080000   21.370000
  Q     14.250000    1.520000    7.170000
  Q     13.620000    0.520000    8.030000
  Q     14.030000    1.230000    7.880000
  Q     15.830000   19.600000    7.780000
  Q     16.220000   18.220000    8.510000
  Q     16.160000   18.790000    7.860000
  Q      2.800000   19.350000    4.990000
  Q      3.920000   19.050000    5.980000
  Q      3.200000   18.890000    5.600000
  Q      4.610000   16.780000    5.440000
  Q      5.930000   16.300000    4.730000
  Q      5.240000   16.740000    4.840000
  Q     19.780000   13.120000    4.020000
  Q     19.980000   12.370000    5.380000
  Q     20.210000   12.730000    4.640000
  Q     13.890000   17.830000   12.030000
  Q     12.460000   17.970000   11.430000
  Q     13.290000   17.760000   11.440000
  Q     16.580000    3.990000    9.080000
  Q     15.210000    3.920000    8.720000
  Q     15.810000    3.980000    9.280000
  Q     15.590000    4.140000   11.390000
  Q     16.230000    3.890000   12.720000
  Q     15.630000    4.150000   12.210000
  Q      4.610000   12.160000    0.280000
  Q      5.080000   10.650000    0.030000
  Q      4.710000   11.310000    0.470000
  Q      7.080000    1.960000   11.400000
  Q      7.940000    3.250000   11.510000
  Q      7.370000    2.680000   11.720000
  Q     14.740000   16.700000   10.120000
  Q     15.960000   16.010000    9.420000
  Q     15.520000   16.630000    9.850000
  Q     20.470000    9.160000   12.790000
  Q     20.190000    8.830000   11.380000
  Q     20.680000    9.000000   12.020000
  Q     10.110000    4.210000   10.660000
  Q     10.110000    2.660000   10.270000
  Q      9.880000    3.480000   10.250000
  Q     16.770000   11.530000    3.160000
  Q     17.260000   10.150000    3.680000
  Q     17.120000   10.750000    3.090000
  Q     14.630000   14.400000    1.770000
  Q     13.270000   14.130000    2.540000
  Q     14.020000   13.920000    2.120000
  Q      7.550000   10.800000    2.110000
  Q      6.070000   11.060000    2.070000
  Q      6.760000   10.660000    2.350000
  Q     10.880000    7.190000   17.110000
  Q     10.080000    7.110000   15.780000
  Q     10.190000    7.010000   16.650000
  Q     20.410000   15.720000   10.740000
  Q     21.820000   16.240000   11.210000
  Q     21.250000   15.910000   10.670000
  Q     12.550000   11.180000   20.120000
  Q     13.480000   10.050000   20.490000
  Q     13.300000   10.840000   20.390000
  Q     19.110000   13.450000   10.070000
  Q     19.450000   14.400000    8.960000
  Q     19.070000   14.190000    9.660000
  Q     11.080000   12.670000   17.380000
  Q     11.240000   12.980000   15.900000
  Q     11.340000   13.100000   16.730000
  Q      9.070000    8.690000   21.150000
  Q      8.360000   10.020000   20.780000
  Q      8.590000    9.210000   20.670000
  Q      5.840000    9.040000   15.850000
  Q      6.750000    9.090000   17.120000
  Q      6.570000    9.000000   16.290000
  Q      7.430000   14.260000   16.530000
  Q      8.140000   15.440000   17.300000
  Q      7.720000   15.060000   16.660000
  Q      5.500000   12.040000   13.930000
  Q      4.930000   12.770000   15.100000
  Q      5.540000   12.540000   14.600000
  Q      4.360000    4.500000    3.430000
  Q      5.430000    5.510000    3.400000
  Q      4.880000    5.020000    3.050000
  Q      4.730000    4.440000   11.270000
  Q      6.130000    4.650000   11.030000
  Q      5.360000    4.920000   11.010000
  Q     15.840000    7.470000   18.320000
  Q     15.520000    8.880000   17.730000
  Q     15.600000    8.020000   17.690000
  Q     17.740000   12.910000    6.270000
  Q     18.330000   11.430000    5.910000
  Q     18.170000   12.150000    6.380000
  Q      1.500000   12.320000   13.620000
  Q      1.250000   13.550000   14.650000
  Q      1.420000   12.710000   14.400000
  Q      4.050000   16.100000    7.670000
  Q      2.730000   15.810000    7.220000
  Q      3.540000   15.800000    7.080000
  Q     10.720000   20.950000   14.310000
  Q      9.760000   20.000000   14.920000
  Q     10.050000   20.440000   14.310000
  Q      5.740000   17.690000    9.180000
  Q      5.580000   17.840000    7.590000
  Q      5.670000   17.430000    8.380000
  Q      3.570000    7.190000    8.840000
  Q      4.670000    6.650000    9.820000
  Q      4.240000    7.250000    9.370000
  Q      2.920000   10.330000    5.710000
  Q      2.860000    8.840000    5.360000
  Q      3.190000    9.640000    5.330000
  Q      6.620000   11.940000   16.570000
  Q      7.710000   11.880000   17.540000
  Q      7.000000   12.170000   17.260000
  Q     14.780000    2.870000    4.950000
  Q     15.640000    3.340000    3.790000
  Q     15.390000    3.330000    4.570000
  Q      9.250000   15.490000   15.710000
  Q     10.790000   15.000000   15.920000
  Q     10.140000   15.470000   15.590000
  Q     16.940000   17.300000   11.290000
  Q     16.820000   17.760000   12.610000
  Q     17.240000   17.660000   11.900000
  Q     14.970000   12.160000   20.850000
  Q     15.590000   13.340000   20.170000
  Q     15.540000   12.760000   20.750000
  Q      7.750000   15.170000    3.450000
  Q      8.220000   16.140000    4.430000
  Q      7.730000   15.530000    4.190000
  Q      6.130000   18.610000   11.470000
  Q      6.190000   19.850000   10.500000
  Q      5.940000   19.070000   10.730000
  Q     20.360000   11.760000   11.000000
  Q     19.120000   11.260000   10.290000
  Q     19.600000   11.840000   10.650000
  Q      6.660000   12.190000   20.580000
  Q      7.250000   12.060000   22.050000
  Q      7.260000   12.010000   21.190000
  Q     10.500000    6.280000    3.800000
  Q      9.160000    5.950000    3.050000
  Q      9.870000    5.800000    3.470000
  Q      5.630000   13.940000    3.170000
  Q      4.870000   15.260000    3.260000
  Q      5.150000   14.560000    2.870000
  Q     17.400000    5.870000    8.750000
  Q     18.080000    5.290000    7.580000
  Q     18.000000    5.410000    8.380000
  Q     15.220000   19.180000   13.920000
  Q     14.970000   17.670000   13.990000
  Q     15.040000   18.420000   13.600000
  Q      6.220000    1.680000    5.390000
  Q      7.590000    2.340000    5.190000
  Q      7.060000    1.720000    5.350000
  Q     17.880000    3.760000   15.040000
  Q     17.850000    2.860000   13.790000
  Q     17.690000    3.540000   14.220000
  Q     13.760000   18.970000    8.140000
  Q     13.440000   18.320000    6.850000
  Q     13.310000   18.900000    7.450000
  Q      2.250000   16.890000   12.170000
  Q      2.500000   16.230000   10.700000
  Q      2.170000   16.740000   11.330000
  Q      2.180000    6.960000    6.480000
  Q      1.650000    6.700000    5.050000
  Q      1.950000    7.190000    5.680000
  Q     15.440000   15.900000   15.160000
  Q     15.750000   15.110000   13.830000
  Q     15.350000   15.710000   14.330000
  Q     10.490000   19.330000   12.730000
  Q     10.600000   17.930000   12.520000
  Q     10.780000   18.690000   12.300000
  Q     14.570000   12.750000    3.610000
  Q     15.170000   11.530000    4.430000
  Q     15.090000   12.350000    4.170000
  Q     19.870000    6.120000    8.740000
  Q     20.970000    6.130000    7.700000
  Q     20.580000    6.410000    8.380000
  Q      2.030000    7.960000   11.560000
  Q      3.290000    8.330000   10.710000
  Q      2.800000    8.300000   11.400000
  Q     14.960000    9.710000    2.870000
  Q     14.140000    9.870000    1.600000
  Q     14.490000    9.440000    2.210000
  Q     17.500000   14.480000   17.640000
  Q     18.250000   15.710000   17.080000
  Q     17.740000   15.280000   17.590000
  Q     11.000000    0.640000    7.500000
  Q     10.510000    0.770000    8.970000
  Q     10.610000    0.980000    8.160000
  Q      6.580000   17.150000   13.190000
  Q      6.420000   18.620000   13.690000
  Q      6.630000   18.000000   13.130000
  Q     12.520000    7.010000   21.620000
  Q     12.430000    5.610000   22.220000
  Q     12.130000    6.300000   21.820000
  Q      9.800000   10.250000   17.480000
  Q      8.890000    9.720000   18.460000
  Q      9.160000   10.330000   17.990000
  Q     14.910000    4.610000   16.440000
  Q     13.910000    4.750000   15.400000
  Q     14.160000    4.670000   16.160000
  Q      8.170000    7.290000   19.110000
  Q      8.400000    7.090000   17.630000
  Q      7.940000    7.230000   18.310000
  Q     10.850000    3.280000   15.130000
  Q     11.800000    2.020000   15.440000
  Q     11.570000    2.780000   15.100000
  Q     19.430000   15.850000    7.070000
  Q     20.950000   15.350000    7.070000
  Q     20.120000   15.340000    7.240000
  Q      6.790000   15.710000    1.670000
  Q      6.530000   17.100000    1.060000
  Q      7.000000   16.510000    1.440000
  Q      4.030000    7.430000   12.710000
  Q      4.910000    6.340000   12.040000
  Q      4.620000    6.840000   12.670000
  Q      6.740000   16.160000   19.680000
  Q      8.200000   16.410000   19.960000
  Q      7.540000   16.270000   19.460000
  Q     16.010000   17.530000    3.420000
  Q     14.600000   17.150000    3.850000
  Q     15.250000   17.130000    3.360000
  Q     14.550000   15.260000   17.700000
  Q     13.270000   14.340000   17.810000
  Q     13.950000   14.770000   18.100000
  Q     14.780000    7.370000    2.450000
  Q     16.260000    6.890000    2.770000
  Q     15.390000    6.780000    2.700000
  Q      3.530000   12.680000    6.730000
  Q      4.240000   14.080000    6.430000
  Q      4.200000   13.220000    6.510000
  Q      3.230000   12.490000   17.060000
  Q      2.670000   12.400000   15.590000
  Q      3.230000   12.230000   16.220000
  Q     11.310000    9.730000    3.130000
  Q     12.280000   10.680000    2.370000
  Q     11.690000   10.450000    2.970000
  Q     11.630000   19.350000    2.510000
  Q     10.510000   19.920000    3.500000
  Q     10.890000   19.750000    2.770000
  Q     20.890000   12.620000    7.260000
  Q     20.440000   11.200000    7.520000
  Q     21.020000   11.800000    7.440000
  Q      2.120000    5.680000    8.530000
  Q      0.950000    6.580000    8.300000
  Q      1.750000    6.370000    8.280000
  Q      8.220000    3.690000    8.890000
  Q      7.760000    3.480000    7.420000
  Q      7.670000    3.640000    8.230000
  Q      8.750000   13.120000    1.930000
  Q      8.400000   14.340000    1.140000
  Q      8.320000   13.800000    1.760000
  Q     17.630000   17.800000    6.580000
  Q     17.150000   16.510000    5.790000
  Q     17.710000   17.060000    6.130000
  Q     11.060000    3.100000    7.340000
  Q     11.390000    4.560000    6.820000
  Q     11.350000    3.700000    6.810000
  Q      5.000000    8.790000    4.180000
  Q      6.010000    8.990000    3.040000
  Q      5.480000    8.570000    3.530000
  Q     18.990000    5.660000   17.160000
  Q     18.540000    7.010000   16.450000
  Q     18.850000    6.510000   17.070000
  Q     10.040000    0.140000   11.160000
  Q     11.360000    0.840000   11.510000
  Q     10.580000    0.790000   11.160000
  Q      3.620000   10.350000   15.820000
  Q      3.490000    8.810000   15.660000
  Q      3.890000    9.540000   15.690000
  Q      9.980000   10.770000    1.770000
  Q      9.410000   11.580000    0.560000
  Q      9.420000   11.240000    1.330000
  Q      9.890000    3.580000    5.570000
  Q      8.890000    4.380000    4.900000
  Q      9.090000    3.790000    5.390000
  Q     17.120000    1.600000    6.470000
  Q     16.210000    2.820000    6.370000
  Q     16.790000    2.350000    6.710000
  Q     19.750000    6.290000   13.760000
  Q     18.450000    5.510000   13.780000
  Q     19.050000    5.970000   13.430000
  Q      3.280000   10.420000    1.590000
  Q      2.970000    9.860000    3.020000
  Q      3.000000    9.830000    2.160000
  Q     13.580000   14.570000    7.030000
  Q     14.890000   15.130000    6.250000
  Q     14.150000   15.170000    6.740000
  Q     12.220000    7.690000    4.590000
  Q     10.730000    8.340000    4.800000
  Q     11.390000    7.960000    4.380000
  Q     13.180000    3.870000    7.330000
  Q     14.190000    4.550000    6.310000
  Q     13.920000    4.240000    7.090000
  Q      5.920000    6.680000   13.940000
  Q      6.920000    7.310000   15.000000
  Q      6.640000    6.780000   14.380000
  Q      9.670000   19.370000    6.090000
  Q      8.550000   19.640000    5.060000
  Q      9.340000   19.460000    5.300000
  Q      3.690000   17.870000   13.990000
  Q      3.040000   16.630000   14.640000
  Q      3.680000   17.080000   14.280000
  Q      6.570000   20.580000    7.190000
  Q      5.950000   19.990000    5.850000
  Q      5.960000   20.190000    6.700000
  Q     18.510000    7.720000    2.320000
  Q     17.380000    8.620000    2.080000
  Q     17.720000    7.890000    2.260000
  Q      8.700000   16.630000   22.370000
  Q     10.140000   16.910000   21.790000
  Q      9.380000   16.520000   21.830000
  Q      2.000000   14.130000    3.360000
  Q      3.020000   13.850000    2.400000
  Q      2.300000   13.720000    2.720000
  Q     16.800000   12.570000   12.910000
  Q     18.150000   12.630000   11.970000
  Q     17.640000   12.770000   12.650000

----------------------------
CARTESIAN COORDINATES (A.U.)
----------------------------
  NO LB      ZA    FRAG     MASS         X           Y           Z
   0 C     6.0000    0    12.011   18.557111   20.881474   17.196508
   1 H     1.0000    0     1.008   17.442172   21.580672   18.916159
   2 H     1.0000    0     1.008   17.404378   19.974405   15.835905
   3 C     6.0000    0    12.011   20.692501   19.124028   18.009090
   4 H     1.0000    0     1.008   19.804330   17.385480   18.689391
   5 H     1.0000    0     1.008   21.864131   18.935056   16.327234
   6 C     6.0000    0    12.011   22.638919   19.879919   19.974405
   7 H     1.0000    0     1.008   23.886138   21.278316   19.048439
   8 H     1.0000    0     1.008   23.923933   18.273652   20.446837
   9 C     6.0000    0    12.011   21.523981   21.013755   22.393255
  10 H     1.0000    0     1.008   19.426385   21.297214   22.166488
  11 H     1.0000    0     1.008   22.601125   22.676714   22.903481
  12 O     8.0000    0    15.999   21.788542   19.029542   24.358570
  13 H     1.0000    0     1.008   21.410597   19.879919   25.889248
  14 O     8.0000    0    15.999   19.709844   23.111351   16.176056
  15 H     1.0000    0     1.008   18.311446   23.942830   15.420165
  16 O     8.0000    0    15.999   24.528645   14.891042   23.224734
  17 H     1.0000    0     1.008   23.470399   16.289439   23.659371
  18 H     1.0000    0     1.008   23.564885   13.606028   22.204282
  19 O     8.0000    0    15.999   27.590002   24.660926   19.124028
  20 H     1.0000    0     1.008   29.139577   25.397919   18.519316
  21 H     1.0000    0     1.008   28.081330   24.037316   20.786987
  22 O     8.0000    0    15.999   16.799665   24.490851   11.886377
  23 H     1.0000    0     1.008   18.311446   24.301878   10.960412
  24 H     1.0000    0     1.008   15.457960   24.528645   10.563569
  25 O     8.0000    0    15.999   29.007296   17.196508   21.316111
  26 H     1.0000    0     1.008   27.363234   16.327234   21.372803
  27 H     1.0000    0     1.008   28.837221   18.481522   20.012200
  28 O     8.0000    0    15.999   16.667385   26.645138   21.637364
  29 H     1.0000    0     1.008   16.818563   28.534865   21.694056
  30 H     1.0000    0     1.008   15.722521   26.286091   20.031097
  31 O     8.0000    0    15.999   28.610454   19.596460   16.497309
  32 H     1.0000    0     1.008   27.136467   18.613802   16.043775
  33 H     1.0000    0     1.008   28.213611   21.335008   16.554001
  34 O     8.0000    0    15.999   33.977276   19.993302   17.366583
  35 H     1.0000    0     1.008   32.522187   18.972850   17.328789
  36 H     1.0000    0     1.008   34.015070   20.805885   15.741419
  37 O     8.0000    0    15.999   10.393494   25.983734   20.125583
  38 H     1.0000    0     1.008   11.092692   27.117570   21.391700
  39 H     1.0000    0     1.008   10.336802   24.377467   21.032652
  40 O     8.0000    0    15.999   17.668939   31.747399   24.831001
  41 H     1.0000    0     1.008   18.368138   30.575769   26.248296
  42 H     1.0000    0     1.008   16.138261   32.522187   25.473508
  43 O     8.0000    0    15.999   29.574214   13.379261   16.572898
  44 H     1.0000    0     1.008   29.196269   13.511542   18.368138
  45 H     1.0000    0     1.008   28.005741   12.736754   16.024878
  46 O     8.0000    0    15.999   11.886377   23.791652    8.125822
  47 H     1.0000    0     1.008   10.960412   23.357015    9.505322
  48 H     1.0000    0     1.008   12.264323   22.128693    7.294343
  49 O     8.0000    0    15.999   21.920823   18.632700   31.501735
  50 H     1.0000    0     1.008   22.865686   17.272097   30.915920
  51 H     1.0000    0     1.008   23.035762   19.917713   31.142687
  52 O     8.0000    0    15.999   21.335008   11.054898   21.580672
  53 H     1.0000    0     1.008   20.295659   11.621816   23.073556
  54 H     1.0000    0     1.008   22.034207    9.391939   22.053104
  55 O     8.0000    0    15.999   27.892358   18.405933   27.249851
  56 H     1.0000    0     1.008   27.533310   18.179165   25.454611
  57 H     1.0000    0     1.008   29.517522   17.498864   27.495515
  58 O     8.0000    0    15.999   34.033968   14.588686   20.692501
  59 H     1.0000    0     1.008   34.563091   13.757206   22.223179
  60 H     1.0000    0     1.008   32.465495   15.609138   21.089344
  61 O     8.0000    0    15.999   17.971296   18.235857    9.996651
  62 H     1.0000    0     1.008   17.612248   19.898816   10.393494
  63 H     1.0000    0     1.008   16.686282   17.328789   10.884823
  64 O     8.0000    0    15.999   21.486186   12.661165   16.591795
  65 H     1.0000    0     1.008   21.523981   12.056453   18.330343
  66 H     1.0000    0     1.008   19.766535   13.001316   16.308337
  67 O     8.0000    0    15.999   16.761871   29.952159   13.284775
  68 H     1.0000    0     1.008   15.552446   30.481283   14.494199
  69 H     1.0000    0     1.008   16.346131   28.402584   12.415501
  70 O     8.0000    0    15.999   16.232747   17.933501   27.079775
  71 H     1.0000    0     1.008   15.646932   17.309891   25.454611
  72 H     1.0000    0     1.008   15.098912   17.290994   28.289200
  73 O     8.0000    0    15.999   16.346131   31.312762   18.802775
  74 H     1.0000    0     1.008   15.835905   33.051310   18.368138
  75 H     1.0000    0     1.008   17.952398   30.878125   18.084679
  76 O     8.0000    0    15.999   19.124028   22.109796   27.949050
  77 H     1.0000    0     1.008   17.744528   20.824782   27.854563
  78 H     1.0000    0     1.008   18.179165   23.621577   27.571104
  79 O     8.0000    0    15.999   28.232508   12.188734   25.870351
  80 H     1.0000    0     1.008   28.875015   11.073795   24.698721
  81 H     1.0000    0     1.008   27.079775   13.284775   25.057769
  82 O     8.0000    0    15.999   21.353905   24.490851    8.503768
  83 H     1.0000    0     1.008   21.637364   23.262529    7.162062
  84 H     1.0000    0     1.008   21.561775   26.153810    7.861261
  85 O     8.0000    0    15.999   24.906590   15.760316   14.248535
  86 H     1.0000    0     1.008   23.583782   14.966631   15.212295
  87 H     1.0000    0     1.008   24.112905   17.158713   13.473747
  88 O     8.0000    0    15.999   31.256070   27.438823   16.251645
  89 H     1.0000    0     1.008   31.482837   27.627796   14.437508
  90 H     1.0000    0     1.008   32.862337   27.023084   16.894152
  91 O     8.0000    0    15.999   15.590241   25.379022   26.229399
  92 H     1.0000    0     1.008   15.968186   25.322330   24.377467
  93 H     1.0000    0     1.008   14.154049   24.301878   26.512858
  94 O     8.0000    0    15.999   28.232508   23.262529   24.831001
  95 H     1.0000    0     1.008   26.777419   24.377467   24.887693
  96 H     1.0000    0     1.008   28.421481   22.223179   26.342782
  97 O     8.0000    0    15.999   20.276761   13.851693   26.550652
  98 H     1.0000    0     1.008   20.125583   15.590241   25.889248
  99 H     1.0000    0     1.008   22.034207   13.776104   27.098673
 100 O     8.0000    0    15.999   24.112905   24.717618   14.947734
 101 H     1.0000    0     1.008   25.038871   24.925488   16.572898
 102 H     1.0000    0     1.008   22.525536   24.056214   15.420165
 103 O     8.0000    0    15.999   23.961727   20.484631   11.546227
 104 H     1.0000    0     1.008   23.092453   20.163378    9.996651
 105 H     1.0000    0     1.008   23.697166   22.317666   11.659610
 106 O     8.0000    0    15.999   11.678508   28.818324   24.415262
 107 H     1.0000    0     1.008   10.544672   28.534865   25.889248
 108 H     1.0000    0     1.008   13.303672   27.967947   24.755412
 109 Q     0.6645    0     0.000   24.849899    3.911733   21.429494
 110 Q     0.6645    0     0.000   25.964837    3.099151   19.029542
 111 Q    -1.3290    0     0.000   25.700275    2.929076   20.579118
 112 Q     0.6645    0     0.000   17.593350   37.152016   17.631145
 113 Q     0.6645    0     0.000   18.727186   36.528406   20.144481
 114 Q    -1.3290    0     0.000   17.744528   37.340988   19.237412
 115 Q     0.6645    0     0.000   24.566440   21.788542    0.529123
 116 Q     0.6645    0     0.000   25.719173   23.205837    2.664514
 117 Q    -1.3290    0     0.000   24.944385   21.977515    2.022007
 118 Q     0.6645    0     0.000    4.705418   19.086234   22.620022
 119 Q     0.6645    0     0.000    3.307021   21.032652   20.938166
 120 Q    -1.3290    0     0.000    4.346370   20.560220   22.128693
 121 Q     0.6645    0     0.000   23.281426   11.413946   37.114221
 122 Q     0.6645    0     0.000   24.245186    9.902165   34.638680
 123 Q    -1.3290    0     0.000   24.056214   11.206076   35.602440
 124 Q     0.6645    0     0.000   35.016625   16.761871   11.111590
 125 Q     0.6645    0     0.000   37.529961   17.876809   10.034446
 126 Q    -1.3290    0     0.000   35.942591   17.782323   10.280110
 127 Q     0.6645    0     0.000   33.656022   23.035762   34.468605
 128 Q     0.6645    0     0.000   33.089105   23.602679   31.898577
 129 Q    -1.3290    0     0.000   32.748954   23.697166   33.372564
 130 Q     0.6645    0     0.000   20.749193   35.375673   31.577324
 131 Q     0.6645    0     0.000   19.124028   33.788303   29.706495
 132 Q    -1.3290    0     0.000   19.426385   34.770961   30.915920
 133 Q     0.6645    0     0.000   19.672049   29.177372    5.706973
 134 Q     0.6645    0     0.000   20.824782   28.326995    3.155843
 135 Q    -1.3290    0     0.000   20.824782   28.742734    4.686521
 136 Q     0.6645    0     0.000    4.573137   26.777419   18.160268
 137 Q     0.6645    0     0.000    7.332137   27.079775   19.105131
 138 Q    -1.3290    0     0.000    5.877048   27.608899   18.670494
 139 Q     0.6645    0     0.000   17.120919   14.758761    3.439302
 140 Q     0.6645    0     0.000   19.709844   13.681617    2.248774
 141 Q    -1.3290    0     0.000   18.235857   14.513097    2.267671
 142 Q     0.6645    0     0.000   15.760316   10.714747   16.421720
 143 Q     0.6645    0     0.000   15.439063   13.568234   16.327234
 144 Q    -1.3290    0     0.000   16.024878   12.264323   16.931946
 145 Q     0.6645    0     0.000   11.905275   31.029303   30.878125
 146 Q     0.6645    0     0.000    9.354144   32.106447   29.234063
 147 Q    -1.3290    0     0.000   10.714747   32.125344   30.292310
 148 Q     0.6645    0     0.000   30.953714   14.513097   13.643823
 149 Q     0.6645    0     0.000   32.219831   13.076905   11.376151
 150 Q    -1.3290    0     0.000   31.501735   14.380816   12.150939
 151 Q     0.6645    0     0.000   35.867002   18.972850   27.571104
 152 Q     0.6645    0     0.000   35.999283   15.930391   27.306543
 153 Q    -1.3290    0     0.000   36.509509   17.479967   27.306543
 154 Q     0.6645    0     0.000    2.399952   22.185385   13.927282
 155 Q     0.6645    0     0.000    3.571582   21.391700   16.100467
 156 Q    -1.3290    0     0.000    3.609377   21.712953   14.664275
 157 Q     0.6645    0     0.000   24.264084    6.292788   32.427700
 158 Q     0.6645    0     0.000   22.393255    4.875493   33.958379
 159 Q    -1.3290    0     0.000   23.716063    5.688076   33.788303
 160 Q     0.6645    0     0.000   10.393494    7.596699   15.571343
 161 Q     0.6645    0     0.000    8.711637    6.916398   13.001316
 162 Q    -1.3290    0     0.000    9.278555    7.842363   14.305227
 163 Q     0.6645    0     0.000   12.831240    9.373042   28.251406
 164 Q     0.6645    0     0.000   11.602918    6.651836   29.026193
 165 Q    -1.3290    0     0.000   12.623371    8.050233   29.139577
 166 Q     0.6645    0     0.000   10.658055   23.224734   35.054420
 167 Q     0.6645    0     0.000   10.034446   21.032652   36.622892
 168 Q    -1.3290    0     0.000   10.072240   22.544433   36.339434
 169 Q     0.6645    0     0.000   11.054898   24.188495   17.215405
 170 Q     0.6645    0     0.000   10.544672   23.262529   14.569788
 171 Q    -1.3290    0     0.000   11.187179   23.224734   16.024878
 172 Q     0.6645    0     0.000   25.549097    7.351035   24.169597
 173 Q     0.6645    0     0.000   23.300323    5.858151   25.360125
 174 Q    -1.3290    0     0.000   24.150700    6.576247   24.150700
 175 Q     0.6645    0     0.000   18.027987    3.968425   35.167803
 176 Q     0.6645    0     0.000   18.443727    4.988877   32.559981
 177 Q    -1.3290    0     0.000   18.500419    3.911733   33.712714
 178 Q     0.6645    0     0.000   11.300562   19.955508   23.111351
 179 Q     0.6645    0     0.000    8.636048   20.786987   22.582227
 180 Q    -1.3290    0     0.000   10.185624   20.975960   22.827892
 181 Q     0.6645    0     0.000   19.048439   33.353666    8.579357
 182 Q     0.6645    0     0.000   18.727186   31.256070   10.525775
 183 Q    -1.3290    0     0.000   19.029542   31.841885    9.089583
 184 Q     0.6645    0     0.000   23.980625   38.871667   11.697405
 185 Q     0.6645    0     0.000   23.697166   41.309413   10.166727
 186 Q    -1.3290    0     0.000   23.413707   40.345653   11.357254
 187 Q     0.6645    0     0.000   12.623371   15.590241   22.771200
 188 Q     0.6645    0     0.000   13.738309   17.290994   20.749193
 189 Q    -1.3290    0     0.000   13.606028   16.724076   22.204282
 190 Q     0.6645    0     0.000   23.111351   32.597776    9.354144
 191 Q     0.6645    0     0.000   25.246741   31.085995   10.450186
 192 Q    -1.3290    0     0.000   24.642029   32.295420    9.562014
 193 Q     0.6645    0     0.000   33.013516   27.627796   10.053343
 194 Q     0.6645    0     0.000   30.481283   25.983734    9.618706
 195 Q    -1.3290    0     0.000   31.558426   26.947495   10.374596
 196 Q     0.6645    0     0.000   13.133597   37.038632    6.765220
 197 Q     0.6645    0     0.000   12.037555   34.638680    8.088028
 198 Q    -1.3290    0     0.000   12.774549   36.074872    7.917953
 199 Q     0.6645    0     0.000   18.689391   33.939481   14.645378
 200 Q     0.6645    0     0.000   21.146035   35.678029   14.683172
 201 Q    -1.3290    0     0.000   19.483076   35.318981   14.664275
 202 Q     0.6645    0     0.000   23.734960   38.588208   23.678268
 203 Q     0.6645    0     0.000   25.095563   41.139338   23.054659
 204 Q    -1.3290    0     0.000   24.094008   40.099989   23.848344
 205 Q     0.6645    0     0.000   22.676714   28.421481   17.366583
 206 Q     0.6645    0     0.000   23.319220   30.651358   19.105131
 207 Q    -1.3290    0     0.000   22.355460   29.800981   18.160268
 208 Q     0.6645    0     0.000   18.576008    9.127377   31.085995
 209 Q     0.6645    0     0.000   16.251645    7.672288   29.876570
 210 Q    -1.3290    0     0.000   17.782323    7.880158   30.443488
 211 Q     0.6645    0     0.000   31.463940   10.412391   32.616673
 212 Q     0.6645    0     0.000   31.104892    7.974644   33.750509
 213 Q    -1.3290    0     0.000   31.577324    8.881713   32.597776
 214 Q     0.6645    0     0.000   13.058008   12.642268    3.307021
 215 Q     0.6645    0     0.000   12.717857   13.265877    5.895946
 216 Q    -1.3290    0     0.000   13.473747   12.547782    4.781007
 217 Q     0.6645    0     0.000   13.568234   16.194953   13.927282
 218 Q     0.6645    0     0.000   13.530439   13.927282   12.150939
 219 Q    -1.3290    0     0.000   14.210741   15.155604   12.925727
 220 Q     0.6645    0     0.000   18.764981   22.072001   36.358331
 221 Q     0.6645    0     0.000   20.012200   23.905036   38.191365
 222 Q    -1.3290    0     0.000   20.012200   22.695611   37.189810
 223 Q     0.6645    0     0.000   -0.151178   19.142926   20.163378
 224 Q     0.6645    0     0.000   -0.132281   19.690946   17.404378
 225 Q    -1.3290    0     0.000    0.396842   19.861022   18.935056
 226 Q     0.6645    0     0.000   28.119125   15.287884   40.137783
 227 Q     0.6645    0     0.000   27.174262   15.231193   37.435475
 228 Q    -1.3290    0     0.000   27.004186   15.476857   38.947256
 229 Q     0.6645    0     0.000   34.789858   23.640474   27.419926
 230 Q     0.6645    0     0.000   36.774071   23.073556   29.517522
 231 Q    -1.3290    0     0.000   35.281187   23.149145   28.856118
 232 Q     0.6645    0     0.000   29.347447   38.248057   20.635809
 233 Q     0.6645    0     0.000   28.742734   35.394570   19.728741
[...]
 320   Q   :   -0.004905452   -0.002606656   -0.286094450
 321   Q   :    0.218524781   -0.095327169    0.168737182
 322   Q   :   -0.209436422    0.086866687    0.113944993
 323   Q   :   -0.020739085    0.260037102   -0.072427518
 324   Q   :    0.121513227   -0.191717505   -0.147638214
 325   Q   :   -0.099292455   -0.064686196    0.208395787
 326   Q   :   -0.100399854   -0.258236108   -0.127622860
 327   Q   :    0.197771907    0.195376674   -0.089433239
 328   Q   :   -0.098168408    0.057611899    0.219968469
 329   Q   :   -0.285006137    0.017298519    0.094356644
 330   Q   :    0.119712327   -0.177117680   -0.118879722
 331   Q   :    0.161129467    0.155581567    0.023223281
 332   Q   :   -0.094613146    0.059080105    0.286053828
 333   Q   :   -0.199124984   -0.060351224   -0.219410185
 334   Q   :    0.299767958   -0.000412421   -0.073730885
 335   Q   :    0.079596693    0.219353584    0.135647328
 336   Q   :    0.080544325   -0.262517976    0.009108181
 337   Q   :   -0.148320289    0.042863029   -0.145296333
 338   Q   :   -0.115946372    0.253291383    0.034734224
 339   Q   :    0.036458624   -0.190861273    0.198410338
 340   Q   :    0.085738389   -0.059537326   -0.239315228
 341   Q   :    0.197734292    0.163499299   -0.117408100
 342   Q   :   -0.212494127    0.058727769    0.121472107
 343   Q   :    0.022030161   -0.207218366   -0.007906693
 344   Q   :    0.257790109    0.060822882   -0.086225668
 345   Q   :   -0.212597618    0.145144560   -0.090995644
 346   Q   :   -0.040338181   -0.205809825    0.173959100
 347   Q   :    0.235944589    0.062332502    0.147256663
 348   Q   :   -0.027376017    0.026134956   -0.240611475
 349   Q   :   -0.202769078   -0.082532351    0.100349123
 350   Q   :   -0.266774574   -0.049134350    0.044537535
 351   Q   :    0.188037271    0.117231872    0.201912270
 352   Q   :    0.080323913   -0.064735644   -0.243184500
 353   Q   :   -0.223548400    0.085393809   -0.083240248
 354   Q   :    0.057701370   -0.297544510    0.029041774
 355   Q   :    0.158380363    0.215208014    0.056841285
 356   Q   :    0.003507724   -0.229485163    0.119779517
 357   Q   :    0.129276232    0.056483512   -0.252999859
 358   Q   :   -0.133017956    0.182516719    0.141119825
 359   Q   :   -0.103260743   -0.169717194    0.231756277
 360   Q   :   -0.036948967   -0.038284966   -0.278579179
 361   Q   :    0.139832883    0.206973058    0.046685444
 362   Q   :    0.166181479   -0.166364235    0.171566757
 363   Q   :   -0.064204494    0.260940063    0.047207822
 364   Q   :   -0.093441070   -0.099475627   -0.209632514
 365   Q   :   -0.228305156    0.005760889   -0.141906677
 366   Q   :    0.045489343    0.036558608    0.273476522
 367   Q   :    0.182916366   -0.039240087   -0.115153432
 368   Q   :   -0.088609459   -0.252349686   -0.037869072
 369   Q   :    0.144321308    0.112754308    0.199419177
 370   Q   :   -0.056431100    0.129650902   -0.163597266
 371   Q   :   -0.025360449   -0.172783114   -0.224138969
 372   Q   :   -0.230632996    0.083875668    0.171061312
 373   Q   :    0.253112108    0.096063923    0.055030863
 374   Q   :   -0.191384207   -0.194081737    0.166436649
 375   Q   :    0.201975865    0.178147084    0.157047138
 376   Q   :   -0.010932564    0.016194284   -0.322122972
 377   Q   :   -0.217409732   -0.178606219    0.095949327
 378   Q   :    0.268105389   -0.117903259    0.009439905
 379   Q   :   -0.045158788    0.277833920   -0.114490508
 380   Q   :    0.078141067   -0.168963740    0.214405496
 381   Q   :   -0.012266745    0.242607585    0.021553342
 382   Q   :   -0.072100951   -0.091420840   -0.233167091
 383   Q   :   -0.121869013    0.224920436   -0.043121965
 384   Q   :    0.047798404   -0.203216601   -0.151255815
 385   Q   :    0.075613838   -0.011377431    0.197501441
 386   Q   :    0.020938177   -0.103832784   -0.240760284
 387   Q   :   -0.043685289    0.250533085    0.064844281
 388   Q   :    0.005903304   -0.144583633    0.166376877
 389   Q   :    0.150570037    0.103447259    0.204487007
 390   Q   :   -0.303476044    0.006795060    0.069422910
 391   Q   :    0.136838244   -0.107039237   -0.269770973
 392   Q   :    0.235450628    0.167108025    0.022683400
 393   Q   :   -0.099223866   -0.167713672    0.249600854
 394   Q   :   -0.142868353    0.010270926   -0.266689921
 395   Q   :    0.025140165    0.090201123    0.260920337
 396   Q   :   -0.029947923    0.120663186   -0.228235558
 397   Q   :    0.007948280   -0.218048179   -0.036039090
 398   Q   :   -0.214949181   -0.028312703   -0.165479360
 399   Q   :    0.120038109   -0.187502880    0.137220519
 400   Q   :    0.099267479    0.211377940    0.023665906
 401   Q   :   -0.111229502    0.243879419    0.143947767
 402   Q   :   -0.099676230   -0.229729025    0.019759037
 403   Q   :    0.215625531    0.002167303   -0.160617820
 404   Q   :   -0.130144093   -0.093854041   -0.254568387
 405   Q   :    0.258624061   -0.109637854    0.087242909
 406   Q   :   -0.120625983    0.204808035    0.165715836
 407   Q   :   -0.175649153   -0.145083736    0.114051366
 408   Q   :    0.088862157   -0.014585121   -0.303263478
 409   Q   :    0.101738135    0.170635487    0.178108072
 410   Q   :   -0.231616702    0.009657992    0.027005942
 411   Q   :    0.197727205   -0.148206098    0.101855320
 412   Q   :    0.050684357    0.139817940   -0.123104320
 413   Q   :   -0.151528648   -0.172760519   -0.258067645
 414   Q   :   -0.155929905    0.017291622    0.243137894
 415   Q   :    0.311680711    0.165366178    0.011454645
 416   Q   :   -0.200401124   -0.207073285    0.019787375
 417   Q   :    0.004994081    0.215369720   -0.226903310
 418   Q   :    0.203291447   -0.005079133    0.209524113
 419   Q   :    0.019160959   -0.116310401   -0.275588614
 420   Q   :    0.180254230    0.225032439    0.073023648
 421   Q   :   -0.200041518   -0.111933248    0.199081291
 422   Q   :    0.052488297   -0.113053144    0.196116962
 423   Q   :    0.091127720    0.271839813   -0.069371497
 424   Q   :   -0.152355082   -0.144379500   -0.134042954
 425   Q   :    0.259286707   -0.033113573    0.125106196
 426   Q   :   -0.153823167   -0.198255628   -0.110029894
 427   Q   :   -0.084832466    0.216275854   -0.008156208
 428   Q   :   -0.181159587    0.061249675   -0.165141925
 429   Q   :   -0.017017017    0.020932050    0.289834989
 430   Q   :    0.203149947   -0.074481424   -0.115115503
 431   Q   :    0.192380557    0.149712363    0.099345982
 432   Q   :   -0.235331154    0.063757263   -0.142983917
 433   Q   :    0.042788476   -0.214097746    0.045252034
 434   Q   :    0.161961150   -0.195959742    0.105043738
 435   Q   :   -0.090784399    0.228347413    0.137215618
 436   Q   :   -0.072541717   -0.032374413   -0.247395758
 437   Q   :   -0.204530701    0.153217852    0.105368785
 438   Q   :    0.019759941   -0.034715958   -0.311934466
 439   Q   :    0.185372079   -0.121236543    0.207663844
 440   Q   :    0.064952772    0.258178554    0.126877301
 441   Q   :   -0.022751034   -0.228570032    0.141290217
 442   Q   :   -0.043977687   -0.011460923   -0.258592999
 443   Q   :   -0.308851034    0.005577404    0.013988976
 444   Q   :    0.163434108    0.230737707   -0.058169244
 445   Q   :    0.136819873   -0.240693372    0.043729899
 446   Q   :    0.073348425    0.057707234    0.253484247
 447   Q   :    0.066501512   -0.266044226   -0.152124364
 448   Q   :   -0.134529436    0.202894428   -0.098979387
 449   Q   :    0.172072693    0.012185488    0.245660740
 450   Q   :    0.053552145   -0.197737767   -0.190044328
 451   Q   :   -0.217153798    0.185025033   -0.047474002
 452   Q   :    0.030113986    0.042676055    0.295844322
 453   Q   :    0.097530609   -0.149439086   -0.177960381
 454   Q   :   -0.133881384    0.119225957   -0.112697900
 455   Q   :    0.074654922   -0.082745738    0.240204181
 456   Q   :   -0.101251611   -0.180753510   -0.198648613
 457   Q   :    0.020982953    0.253217611   -0.051478185
 458   Q   :    0.035810451    0.049433794    0.257375639
 459   Q   :    0.123699748   -0.187714342   -0.142071891
 460   Q   :   -0.146511537    0.124742354   -0.123731460
 461   Q   :   -0.101480339    0.210156384    0.156229977
 462   Q   :   -0.056929085   -0.275159803    0.090758242
 463   Q   :    0.166907228    0.063269928   -0.245652967
 464   Q   :   -0.168876720    0.111717856   -0.173864769
 465   Q   :    0.016150207   -0.249707068    0.065326307
 466   Q   :    0.136346226    0.133527430    0.109654727
 467   Q   :   -0.224777341   -0.102365762    0.104493499
 468   Q   :    0.130738318   -0.115402172   -0.258181600
 469   Q   :    0.105390239    0.206949402    0.150765116
 470   Q   :   -0.259306200   -0.114006902    0.043218670
 471   Q   :    0.144153826    0.011668171   -0.227671466
 472   Q   :    0.107329795    0.102356625    0.179121833
 473   Q   :    0.149313833    0.105552779    0.208628979
 474   Q   :   -0.125306663    0.168490481   -0.222314650
 475   Q   :   -0.025380368   -0.270611518    0.012164998
 476   Q   :   -0.074719545   -0.272666248    0.001209516
 477   Q   :    0.172564711    0.130128063   -0.177038451
 478   Q   :   -0.092004302    0.138009981    0.185680198
 479   Q   :    0.150477377   -0.133750435   -0.227925861
 480   Q   :   -0.026568176   -0.088830529    0.274398067
 481   Q   :   -0.127488216    0.215872071   -0.049777784
 482   Q   :   -0.011897409   -0.264512491    0.036667014
 483   Q   :   -0.075267742    0.194201682    0.187097805
 484   Q   :    0.092214556    0.077757045   -0.211443574
 485   Q   :    0.149001682    0.239817990   -0.063459647
 486   Q   :    0.117447805   -0.227163862    0.134862633
 487   Q   :   -0.266435825   -0.016183125   -0.061165473
 488   Q   :    0.224032595   -0.041106722   -0.174741362
 489   Q   :   -0.090568436   -0.237250489    0.163473294
 490   Q   :   -0.138059106    0.268541944    0.005271109
 491   Q   :    0.298861684   -0.023081031    0.099977076
 492   Q   :   -0.084717144    0.026609356   -0.306946347
 493   Q   :   -0.216066602   -0.000847534    0.200781554
 494   Q   :    0.092259965    0.019682584    0.270608728
 495   Q   :    0.157500769   -0.054548936   -0.228059449
 496   Q   :   -0.251696259    0.043550738   -0.038991427
 497   Q   :   -0.208852293    0.134995788    0.005111136
 498   Q   :    0.066476358   -0.248711660    0.113485519
 499   Q   :    0.145469502    0.107478961   -0.112581519
 500   Q   :   -0.204139613    0.154996430   -0.056304697
 501   Q   :    0.285995781    0.012045596   -0.068451274
 502   Q   :   -0.072172371   -0.165657068    0.120462590
 503   Q   :   -0.074335384   -0.256909339    0.063239837
 504   Q   :   -0.180294445    0.196832661   -0.137303233
 505   Q   :    0.259026824    0.068685763    0.071996187
 506   Q   :   -0.205501063    0.202893293    0.011103734
 507   Q   :    0.079277490   -0.141582760   -0.203848943
 508   Q   :    0.110034938   -0.052539772    0.197746057
 509   Q   :   -0.285696551   -0.037196344    0.101393324
 510   Q   :    0.213715445    0.049385510    0.185972123
 511   Q   :    0.064747512   -0.008964069   -0.286949428
 512   Q   :    0.247888713    0.136362385    0.034786604
 513   Q   :   -0.226346681    0.015179947    0.194183440
 514   Q   :   -0.011867048   -0.151326407   -0.234285240
 515   Q   :    0.175785432    0.138668246   -0.129668978
 516   Q   :   -0.219753467   -0.135642878   -0.104334593
 517   Q   :    0.045188015   -0.008342437    0.229728288
 518   Q   :   -0.173612871    0.173652676   -0.071913799
 519   Q   :    0.245896562    0.035435436    0.027525912
 520   Q   :   -0.081443811   -0.226702853    0.047069192
 521   Q   :   -0.201873472   -0.150689882    0.061812672
 522   Q   :    0.005091189    0.256128348   -0.028865838
 523   Q   :    0.193846155   -0.102728927   -0.044725978
 524   Q   :   -0.013368045    0.088862863    0.249140329
 525   Q   :   -0.164919112    0.063890002   -0.177467670
 526   Q   :    0.185767200   -0.143247183   -0.051540235
 527   Q   :   -0.139571487   -0.251929898    0.037754946
 528   Q   :    0.164398188    0.054794249   -0.176811690
 529   Q   :   -0.028349037    0.185017131    0.140299657
 530   Q   :    0.233884064   -0.127247069   -0.067248473
 531   Q   :   -0.118583142    0.053599130    0.257354237
 532   Q   :   -0.111671194    0.075163519   -0.197689822
 533   Q   :   -0.066705459    0.278165221   -0.067961036
 534   Q   :   -0.226096139   -0.193695466    0.013318558
 535   Q   :    0.292279744   -0.084587598    0.052971875
 536   Q   :    0.123659291   -0.258443464    0.099637009
 537   Q   :   -0.295540133    0.062104847    0.016231194
 538   Q   :    0.159898580    0.193583453   -0.106830372
 539   Q   :    0.173816350    0.027374834    0.198869781
 540   Q   :    0.038437973   -0.053339215   -0.285278592
 541   Q   :   -0.218334557    0.023966133    0.079955449
 542   Q   :    0.171283564   -0.239477667    0.044839942
 543   Q   :    0.046131011    0.189443193   -0.238573943
 544   Q   :   -0.216728892    0.047901333    0.191490553
 545   Q   :   -0.027419593    0.221055564    0.131447862
 546   Q   :   -0.193962083   -0.187436019   -0.114591091
 547   Q   :    0.228076922   -0.030791787   -0.023685887
 548   Q   :   -0.091689582   -0.184763931    0.174951029
 549   Q   :    0.008974095    0.269744628    0.011590359
 550   Q   :    0.080287215   -0.077951903   -0.185486841
 551   Q   :   -0.157479046    0.084543263    0.238512013
 552   Q   :    0.186196848    0.141813228   -0.158403793
 553   Q   :   -0.038062993   -0.234885506   -0.076843003
 554   Q   :    0.040881769   -0.279643595    0.013982414
 555   Q   :   -0.103698771    0.148524539   -0.214065961
 556   Q   :    0.073296341    0.129186902    0.202144889
 557   Q   :   -0.176971847   -0.236478139    0.001717118
 558   Q   :    0.247556301    0.000369547    0.118615243
 559   Q   :   -0.071864331    0.231957411   -0.107979377
 560   Q   :   -0.099585986    0.232962141    0.035220579
 561   Q   :   -0.160388796   -0.263999262   -0.012944907
 562   Q   :    0.249428097    0.023865820   -0.025361740
 563   Q   :    0.185669430   -0.150325721    0.129620899
 564   Q   :    0.007893535    0.123793492   -0.272839572
 565   Q   :   -0.186672920    0.020049397    0.135359923
 566   Q   :    0.263180098   -0.058068256    0.044300133
 567   Q   :   -0.073786637    0.246462073   -0.199000017
 568   Q   :   -0.189235333   -0.187151549    0.149580317
 569   Q   :    0.101540717   -0.257051732   -0.100040063
 570   Q   :   -0.221647632    0.162011531   -0.138816223
 571   Q   :    0.120560756    0.089212129    0.246650595
 572   Q   :    0.241604955    0.110802441    0.141674984
 573   Q   :   -0.205153072   -0.153325037    0.149549307
 574   Q   :   -0.033165419    0.043211239   -0.285973946
 575   Q   :    0.083403889    0.194609253   -0.164122092
 576   Q   :   -0.007304392    0.027094868    0.281610461
 577   Q   :   -0.082821160   -0.225284059   -0.115598442
 578   Q   :   -0.160731703   -0.178915291    0.073085187
 579   Q   :    0.211190788   -0.016265105   -0.150549848
 580   Q   :   -0.045691632    0.197813979    0.087852970
 581   Q   :    0.218138633   -0.062883279    0.067510833
 582   Q   :   -0.195282397    0.107092630    0.135936380
 583   Q   :   -0.019738822   -0.039601760   -0.200131515
 584   Q   :   -0.236508842   -0.119168822    0.068564152
 585   Q   :    0.069859864    0.077936686   -0.234406598
 586   Q   :    0.168157804    0.041057546    0.166095586
 587   Q   :   -0.227664745   -0.029892425   -0.128759255
 588   Q   :    0.082380657    0.170341974    0.188732499
 589   Q   :    0.155890099   -0.132067029   -0.052956681
 590   Q   :    0.085438210   -0.026934379    0.240750647
 591   Q   :   -0.267687997    0.069436459   -0.068040324
 592   Q   :    0.175682625   -0.028302121   -0.172192573
 593   Q   :   -0.016949810    0.275362462   -0.091545084
 594   Q   :   -0.219028020   -0.135383160    0.116961471
 595   Q   :    0.225906200   -0.138669791   -0.039876470
 596   Q   :    0.202341177    0.123809462    0.140598023
 597   Q   :   -0.000420105   -0.053471559   -0.256899880
 598   Q   :   -0.204844860   -0.059851009    0.127294036
 599   Q   :    0.318873285   -0.051415712    0.020338869
 600   Q   :   -0.105046786    0.267553254   -0.065726167
 601   Q   :   -0.201670689   -0.213781231    0.039134808
 602   Q   :   -0.205420648    0.046529152    0.173312907
 603   Q   :    0.247539927    0.140160125   -0.001067360
 604   Q   :   -0.042126664   -0.178781481   -0.164858590
 605   Q   :   -0.098633151    0.172845488    0.251270441
 606   Q   :    0.291848149    0.071181562   -0.117924168
 607   Q   :   -0.199333675   -0.245682988   -0.135136963
 608   Q   :   -0.217954778   -0.057011417    0.068787918
 609   Q   :    0.149876143   -0.041752416   -0.216644495
 610   Q   :    0.067279277    0.095105162    0.139445819

Difference to translation invariance:
           :    0.0000707092    0.0004390362    0.0003773330

Difference to rotation invariance:
           :    0.0016219051   -0.0092558879    0.0082828267

Norm of the cartesian gradient     ...    6.1838188737
RMS gradient                       ...    0.1445543668
MAX gradient                       ...    0.3325794354

-------
TIMINGS
-------

Total SCF gradient time            ...      207.495 sec

One electron gradient       ....      24.106 sec  ( 11.6%)
RI-J Coulomb gradient       ....      10.903 sec  (  5.3%)
COSX gradient               ....     131.910 sec  ( 63.6%)
XC gradient                 ....      16.127 sec  (  7.8%)

Maximum memory used throughout the entire SCFGRAD-calculation: 838.8 MB

                            ***************************************
                            *     ORCA property calculations      *
                            ***************************************

                                    ---------------------
                                    Active property flags
                                    ---------------------
   (+) Dipole Moment


------------------------------------------------------------------------------
                       ORCA ELECTRIC PROPERTIES CALCULATION
------------------------------------------------------------------------------

Dipole Moment Calculation                       ... on
Quadrupole Moment Calculation                   ... off
Polarizability Calculation                      ... off
GBWName                                         ... final057.orca.gbw
Electron density                                ... final057.orca.scfp
The origin for moment calculation is the CENTER OF MASS  = (22.011607, 21.009356 19.650101)

-------------
DIPOLE MOMENT
-------------
                                X             Y             Z
Electronic contribution:     -0.98851       0.92465       1.15506
Nuclear contribution   :    -13.55953      -9.73886       0.97167
                        -----------------------------------------
Total Dipole Moment    :    -14.54804      -8.81421       2.12674
                        -----------------------------------------
Magnitude (a.u.)       :     17.14231
Magnitude (Debye)      :     43.57229



--------------------
Rotational spectrum 
--------------------
 
Rotational constants in cm-1:     0.001840     0.001403     0.001130 
Rotational constants in MHz :    55.148352    42.067233    33.885060 

 Dipole components along the rotational axes: 
x,y,z [a.u.] :     4.532880     6.470448    15.213321 
x,y,z [Debye]:    11.521665    16.446573    38.669188 

 

Timings for individual modules:

Sum of individual times         ...      904.589 sec (=  15.076 min)
GTO integral calculation        ...       13.204 sec (=   0.220 min)   1.5 %
SCF iterations                  ...      679.726 sec (=  11.329 min)  75.1 %
SCF Gradient evaluation         ...      211.659 sec (=   3.528 min)  23.4 %
                             ****ORCA TERMINATED NORMALLY****
TOTAL RUN TIME: 0 days 0 hours 15 minutes 12 seconds 702 msec
