
                                 *****************
                                 * O   R   C   A *
                                 *****************

                                            #,                                       
                                            ###                                      
                                            ####                                     
                                            #####                                    
                                            ######                                   
                                           ########,                                 
                                     ,,################,,,,,                         
                               ,,#################################,,                 
                          ,,##########################################,,             
                       ,#########################################, ''#####,          
                    ,#############################################,,   '####,        
                  ,##################################################,,,,####,       
                ,###########''''           ''''###############################       
              ,#####''   ,,,,##########,,,,          '''####'''          '####       
            ,##' ,,,,###########################,,,                        '##       
           ' ,,###''''                  '''############,,,                           
         ,,##''                                '''############,,,,        ,,,,,,###''
      ,#''                                            '''#######################'''  
     '                                                          ''''####''''         
             ,#######,   #######,   ,#######,      ##                                
            ,#'     '#,  ##    ##  ,#'     '#,    #''#        ######   ,####,        
            ##       ##  ##   ,#'  ##            #'  '#       #        #'  '#        
            ##       ##  #######   ##           ,######,      #####,   #    #        
            '#,     ,#'  ##    ##  '#,     ,#' ,#      #,         ##   #,  ,#        
             '#######'   ##     ##  '#######'  #'      '#     #####' # '####'        



                  #######################################################
                  #                        -***-                        #
                  #          Department of theory and spectroscopy      #
                  #    Directorship and core code : Frank Neese         #
                  #        Max Planck Institute fuer Kohlenforschung    #
                  #                Kaiser Wilhelm Platz 1               #
                  #                 D-45470 Muelheim/Ruhr               #
                  #                      Germany                        #
                  #                                                     #
                  #                  All rights reserved                #
                  #                        -***-                        #
                  #######################################################


                         Program Version 5.0.3 -  RELEASE  -


 With contributions from (in alphabetic order):
   Daniel Aravena         : Magnetic Suceptibility
   Michael Atanasov       : Ab Initio Ligand Field Theory (pilot matlab implementation)
   Alexander A. Auer      : GIAO ZORA, VPT2 properties, NMR spectrum
   Ute Becker             : Parallelization
   Giovanni Bistoni       : ED, misc. LED, open-shell LED, HFLD
   Martin Brehm           : Molecular dynamics
   Dmytro Bykov           : SCF Hessian
   Vijay G. Chilkuri      : MRCI spin determinant printing, contributions to CSF-ICE
   Dipayan Datta          : RHF DLPNO-CCSD density
   Achintya Kumar Dutta   : EOM-CC, STEOM-CC
   Dmitry Ganyushin       : Spin-Orbit,Spin-Spin,Magnetic field MRCI
   Miquel Garcia          : C-PCM and meta-GGA Hessian, CC/C-PCM, Gaussian charge scheme
   Yang Guo               : DLPNO-NEVPT2, F12-NEVPT2, CIM, IAO-localization
   Andreas Hansen         : Spin unrestricted coupled pair/coupled cluster methods
   Benjamin Helmich-Paris : MC-RPA, TRAH-SCF, COSX integrals
   Lee Huntington         : MR-EOM, pCC
   Robert Izsak           : Overlap fitted RIJCOSX, COSX-SCS-MP3, EOM
   Marcus Kettner         : VPT2
   Christian Kollmar      : KDIIS, OOCD, Brueckner-CCSD(T), CCSD density, CASPT2, CASPT2-K
   Simone Kossmann        : Meta GGA functionals, TD-DFT gradient, OOMP2, MP2 Hessian
   Martin Krupicka        : Initial AUTO-CI
   Lucas Lang             : DCDCAS
   Marvin Lechner         : AUTO-CI (C++ implementation), FIC-MRCC
   Dagmar Lenk            : GEPOL surface, SMD
   Dimitrios Liakos       : Extrapolation schemes; Compound Job, initial MDCI parallelization
   Dimitrios Manganas     : Further ROCIS development; embedding schemes
   Dimitrios Pantazis     : SARC Basis sets
   Anastasios Papadopoulos: AUTO-CI, single reference methods and gradients
   Taras Petrenko         : DFT Hessian,TD-DFT gradient, ASA, ECA, R-Raman, ABS, FL, XAS/XES, NRVS
   Peter Pinski           : DLPNO-MP2, DLPNO-MP2 Gradient
   Christoph Reimann      : Effective Core Potentials
   Marius Retegan         : Local ZFS, SOC
   Christoph Riplinger    : Optimizer, TS searches, QM/MM, DLPNO-CCSD(T), (RO)-DLPNO pert. Triples
   Tobias Risthaus        : Range-separated hybrids, TD-DFT gradient, RPA, STAB
   Michael Roemelt        : Original ROCIS implementation
   Masaaki Saitow         : Open-shell DLPNO-CCSD energy and density
   Barbara Sandhoefer     : DKH picture change effects
   Avijit Sen             : IP-ROCIS
   Kantharuban Sivalingam : CASSCF convergence, NEVPT2, FIC-MRCI
   Bernardo de Souza      : ESD, SOC TD-DFT
   Georgi Stoychev        : AutoAux, RI-MP2 NMR, DLPNO-MP2 response
   Willem Van den Heuvel  : Paramagnetic NMR
   Boris Wezisla          : Elementary symmetry handling
   Frank Wennmohs         : Technical directorship


 We gratefully acknowledge several colleagues who have allowed us to
 interface, adapt or use parts of their codes:
   Stefan Grimme, W. Hujo, H. Kruse, P. Pracht,  : VdW corrections, initial TS optimization,
                  C. Bannwarth, S. Ehlert          DFT functionals, gCP, sTDA/sTD-DF
   Ed Valeev, F. Pavosevic, A. Kumar             : LibInt (2-el integral package), F12 methods
   Garnet Chan, S. Sharma, J. Yang, R. Olivares  : DMRG
   Ulf Ekstrom                                   : XCFun DFT Library
   Mihaly Kallay                                 : mrcc  (arbitrary order and MRCC methods)
   Jiri Pittner, Ondrej Demel                    : Mk-CCSD
   Frank Weinhold                                : gennbo (NPA and NBO analysis)
   Christopher J. Cramer and Donald G. Truhlar   : smd solvation model
   Lars Goerigk                                  : TD-DFT with DH, B97 family of functionals
   V. Asgeirsson, H. Jonsson                     : NEB implementation
   FAccTs GmbH                                   : IRC, NEB, NEB-TS, DLPNO-Multilevel, CI-OPT
                                                   MM, QMMM, 2- and 3-layer-ONIOM, Crystal-QMMM,
                                                   LR-CPCM, SF, NACMEs, symmetry and pop. for TD-DFT,
                                                   nearIR, NL-DFT gradient (VV10), updates on ESD,
                                                   ML-optimized integration grids
   S Lehtola, MJT Oliveira, MAL Marques          : LibXC Library
   Liviu Ungur et al                             : ANISO software


 Your calculation uses the libint2 library for the computation of 2-el integrals
 For citations please refer to: http://libint.valeyev.net

 Your ORCA version has been built with support for libXC version: 5.1.0
 For citations please refer to: https://tddft.org/programs/libxc/

 This ORCA versions uses:
   CBLAS   interface :  Fast vector & matrix operations
   LAPACKE interface :  Fast linear algebra routines
   SCALAPACK package :  Parallel linear algebra routines
   Shared memory     :  Shared parallel matrices
   BLAS/LAPACK       :  OpenBLAS 0.3.15  USE64BITINT DYNAMIC_ARCH NO_AFFINITY SkylakeX SINGLE_THREADED
        Core in use  :  SkylakeX
   Copyright (c) 2011-2014, The OpenBLAS Project


================================================================================

----- Orbital basis set information -----
Your calculation utilizes the basis: def2-SVP
   F. Weigend and R. Ahlrichs, Phys. Chem. Chem. Phys. 7, 3297 (2005).

The basis set includes element-specific modifications.

Your calculation utilizes the basis: aug-cc-pVTZ 
    H, B-Ne : Obtained from the ccRepo (grant-hill.group.shef.ac.uk/ccrepo) Feb. 2017
              R. A. Kendall, T. H. Dunning, Jr., R. J. Harrison, J. Chem. Phys. 96, 6796 (1992)
         He : Obtained from the ccRepo (grant-hill.group.shef.ac.uk/ccrepo) Feb. 2017
              D. E. Woon, T. H. Dunning, Jr., J. Chem. Phys. 100, 2975 (1994)
  Li-Be, Na : Obtained from the ccRepo (grant-hill.group.shef.ac.uk/ccrepo) Feb. 2017
              B. P. Prascher, D. E. Woon, K. A. Peterson, T. H. Dunning, Jr., A. K. Wilson, Theor. Chem. Acc. 128, 69 (2011)
         Mg : Obtained from the Peterson Research Group Website (tyr0.chem.wsu.edu/~kipeters) Feb. 2017
              B. P. Prascher, D. E. Woon, K. A. Peterson, T. H. Dunning, Jr., A. K. Wilson, Theor. Chem. Acc. 128, 69 (2011)
      Al-Ar : Obtained from the ccRepo (grant-hill.group.shef.ac.uk/ccrepo) Feb. 2017
              D. E. Woon, T. H. Dunning, Jr., J. Chem. Phys. 98, 1358 (1993)
      Sc-Zn : Obtained from the ccRepo (grant-hill.group.shef.ac.uk/ccrepo) Feb. 2017
              N. B. Balabanov, K. A. Peterson, J. Chem. Phys. 123, 064107 (2005)
              N. B. Balabanov, K. A. Peterson, J. Chem. Phys. 125, 074110 (2006)
      Ga-Kr : Obtained from the ccRepo (grant-hill.group.shef.ac.uk/ccrepo) Feb. 2017
              A. K. Wilson, D. E. Woon, K. A. Peterson, T. H. Dunning, Jr., J. Chem. Phys. 110, 7667 (1999)
     Ag, Au : Obtained from the Peterson Research Group Website (tyr0.chem.wsu.edu/~kipeters) Feb. 2017
              K. A. Peterson, C. Puzzarini, Theor. Chem. Acc. 114, 283 (2005)

Your calculation utilizes the basis: cc-pVTZ 
       H, B-Ne : Obtained from the ccRepo (grant-hill.group.shef.ac.uk/ccrepo) Feb. 2017
                 T. H. Dunning, Jr., J. Chem. Phys. 90, 1007 (1989)
            He : Obtained from the ccRepo (grant-hill.group.shef.ac.uk/ccrepo) Feb. 2017
                 D. E. Woon, T. H. Dunning, Jr., J. Chem. Phys. 100, 2975 (1994)
  Li-Be, Na-Mg : Obtained from the ccRepo (grant-hill.group.shef.ac.uk/ccrepo) Feb. 2017
                 B. P. Prascher, D. E. Woon, K. A. Peterson, T. H. Dunning, Jr., A. K. Wilson, Theor. Chem. Acc. 128, 69 (2011)
         Al-Ar : Obtained from the ccRepo (grant-hill.group.shef.ac.uk/ccrepo) Feb. 2017
                 D. E. Woon, T. H. Dunning, Jr., J. Chem. Phys. 98, 1358 (1993)
            Ca : Obtained from the Peterson Research Group Website (tyr0.chem.wsu.edu/~kipeters) Feb. 2017
                 J. Koput, K. A. Peterson, J. Phys. Chem. 106, 9595 (2002)
         Sc-Zn : Obtained from the ccRepo (grant-hill.group.shef.ac.uk/ccrepo) Feb. 2017
                 N. B. Balabanov, K. A. Peterson, J. Chem. Phys. 123, 064107 (2005)
                 N. B. Balabanov, K. A. Peterson, J. Chem. Phys. 125, 074110 (2006)
         Ga-Kr : Obtained from the ccRepo (grant-hill.group.shef.ac.uk/ccrepo) Feb. 2017
                 A. K. Wilson, D. E. Woon, K. A. Peterson, T. H. Dunning, Jr., J. Chem. Phys. 110, 7667 (1999)
             Y : Obtained from the ccRepo (grant-hill.group.shef.ac.uk/ccrepo) Feb. 2017
                 K. A. Peterson, D. Figgen, M. Dolg, H. Stoll, J. Chem. Phys. 126, 124101 (2007)
        Ag, Au : Obtained from the Peterson Research Group Website (tyr0.chem.wsu.edu/~kipeters) Feb. 2017
                 K. A. Peterson, C. Puzzarini, Theor. Chem. Acc. 114, 283 (2005)

----- AuxJ basis set information -----
Your calculation utilizes the auxiliary basis: def2/J
   F. Weigend, Phys. Chem. Chem. Phys. 8, 1057 (2006).

================================================================================
                                        WARNINGS
                       Please study these warnings very carefully!
================================================================================

WARNING: The globally-selected AuxJ basis set is optimized for use with ECPs
         Make sure a suitable alternative is explicitly given all heavy elements (Z>36)

INFO   : the flag for use of the SHARK integral package has been found!

================================================================================
                                       INPUT FILE
================================================================================
NAME = final015.orca.inp
|  1> ! NoMOPrint PrintBasis #MINIPRINT SMALLPRINT LARGEPRINT
|  2> ! ALLPOP XYZFILE
|  3> #! BP86 3-21G   TightSCF
|  4> ! ENGRAD
|  5> ! B3LYP NormalPNO PModel #DecontractAux
|  6> #! VerySlowConv 
|  7>  %maxcore 5000
|  8>  %scf  maxiter   500  end 
|  9> 
| 10> %pal
| 11>     nprocs 32
| 12> end
| 13> 
| 14> %basis
| 15>     NewGTO O    # New basis for oxygen
| 16>         "aug-cc-pVTZ"
| 17>     end
| 18>     NewGTO C    # New basis for carbon
| 19>         "aug-cc-pVTZ"
| 20>     end
| 21>     NewGTO H    # New basis for hydrogen
| 22>         "cc-pVTZ"
| 23>     end
| 24> end
| 25> 
| 26> * xyz 0   1
| 27>   C  10  12.23  11.96  #1
| 28>   H  9.14  12.5  11.33  #2
| 29>   H  10.24  13.16  12.46  #3
| 30>   C  11.18  11.69  11.28  #4
| 31>   H  11.7  12.4  10.71  #5
| 32>   H  11.93  11.42  12.03  #6
| 33>   C  10.82  10.6  10.29  #7
| 34>   H  9.83  10.93  9.8  #8
| 35>   H  10.63  9.65  10.77  #9
| 36>   C  11.94  10.48  9.22  #10
| 37>   H  12.88  10.24  9.71  #11
| 38>   H  11.92  11.44  8.68  #12
| 39>   O  11.63  9.43  8.24  #13
| 40>   H  11.86  8.58  8.68  #14
| 41>   O  9.58  11.36  13.04  #15
| 42>   H  8.86  11.86  13.5  #16
| 43>   O  15.57  9.03  8.8  #17
| 44>   H  14.92  8.79  8.11  #18
| 45>   H  15.43  8.48  9.58  #19
| 46>   O  6.52  11.02  14.08  #20
| 47>   H  6.74  11.94  14.18  #21
| 48>   H  5.77  11.12  13.47  #22
| 49>   O  13  11.61  14.04  #23
| 50>   H  12.11  11.36  14.33  #24
| 51>   H  13.53  11.11  14.73  #25
| 52>   O  14.87  12.31  12.05  #26
| 53>   H  14.3  11.83  12.67  #27
| 54>   H  15.68  11.87  12.28  #28
| 55>   O  8.14  13.87  14.64  #29
| 56>   H  7.69  13.81  15.45  #30
| 57>   H  8.11  14.77  14.33  #31
| 58>   O  13.74  13.04  7.57  #32
| 59>   H  14.55  12.93  8.13  #33
| 60>   H  13.14  13.59  8.13  #34
| 61>   O  12.27  6.98  9.29  #35
| 62>   H  11.87  6.33  9.86  #36
| 63>   H  12.88  6.55  8.71  #37
| 64>   O  9.92  15.28  10.02  #38
| 65>   H  9.38  14.94  10.81  #39
| 66>   H  9.49  16.11  9.84  #40
| 67>   O  6.75  13.27  17.19  #41
| 68>   H  6.42  14.06  17.64  #42
| 69>   H  5.96  12.79  16.92  #43
| 70>   O  10.21  12.31  6.89  #44
| 71>   H  11.09  12.3  6.46  #45
| 72>   H  9.87  11.39  6.98  #46
| 73>   O  12.72  12.02  5.2  #47
| 74>   H  13.13  12.01  6.07  #48
| 75>   H  12.99  12.84  4.82  #49
| 76>   O  17.79  7.85  7.01  #50
| 77>   H  18.37  8.31  6.35  #51
| 78>   H  17.5  8.53  7.68  #52
| 79>   O  14.08  8.85  6.35  #53
| 80>   H  13.21  8.84  5.94  #54
| 81>   H  14.51  7.97  6.06  #55
| 82>   O  9.13  9.6  7.23  #56
| 83>   H  9.14  9.39  6.3  #57
| 84>   H  10.03  9.5  7.57  #58
| 85>   O  15.64  8.02  11.26  #59
| 86>   H  14.91  7.62  11.86  #60
| 87>   H  16.43  7.49  11.24  #61
| 88>   O  11.34  14.91  14.45  #62
| 89>   H  11.46  15.41  15.26  #63
| 90>   H  10.61  14.29  14.55  #64
| 91>   O  10.6  8.77  13.62  #65
| 92>   H  10.33  8.84  14.54  #66
| 93>   H  10.42  9.68  13.25  #67
| 94>   O  7.07  9.22  16.19  #68
| 95>   H  7.23  9.55  17.11  #69
| 96>   H  6.97  10.02  15.65  #70
| 97>   O  13.86  10.6  16.38  #71
| 98>   H  14.04  11.28  17.01  #72
| 99>   H  14.57  9.98  16.72  #73
|100>   O  7.96  16.59  13.64  #74
|101>   H  7.54  16.82  14.44  #75
|102>   H  8.91  16.76  13.88  #76
|103>   O  14.03  14.12  15.25  #77
|104>   H  14.97  13.88  14.97  #78
|105>   H  13.46  13.39  15.02  #79
|106>   O  13.78  15.13  12.72  #80
|107>   H  13.25  14.9  13.53  #81
|108>   H  14.16  14.31  12.4  #82
|109>   O  15.61  11.81  9.3  #83
|110>   H  15.26  11.89  10.19  #84
|111>   H  15.56  10.83  9.06  #85
|112>   O  7.36  14.74  11.38  #86
|113>   H  6.65  14.08  11.43  #87
|114>   H  7.08  15.43  11.96  #88
|115>   O  4.59  9.95  11.67  #89
|116>   H  5.32  9.34  11.56  #90
|117>   H  3.99  9.79  10.94  #91
|118>   O  5.64  12.58  11.34  #92
|119>   H  5.41  11.63  11.24  #93
|120>   H  4.77  13  11.46  #94
|121>   O  16.92  10.21  12.6  #95
|122>   H  17.47  10.63  11.92  #96
|123>   H  16.49  9.41  12.29  #97
|124>   O  10.54  11.86  16.63  #98
|125>   H  9.9  12.24  15.97  #99
|126>   H  10.48  12.38  17.4  #100
|127>   Q  0.6645  9.67$  6.24$  17.47$
|128>   Q  0.6645  10.68$  6.36$  18.57$
|129>   Q  -1.3290  10.15$  5.95$  18.07$
|130>   Q  0.6645  11.18$  14.53$  6.44$
|131>   Q  0.6645  10.38$  14.81$  5.11$
|132>   Q  -1.3290  11$  14.94$  5.69$
|133>   Q  0.6645  15.56$  13.9$  4$
|134>   Q  0.6645  16.33$  12.65$  3.51$
|135>   Q  -1.3290  16.02$  13.44$  3.45$
|136>   Q  0.6645  10.75$  16.07$  21.48$
|137>   Q  0.6645  11.7$  14.84$  21$
|138>   Q  -1.3290  11.47$  15.58$  21.39$
|139>   Q  0.6645  17.68$  6.23$  8.13$
|140>   Q  0.6645  17.37$  4.88$  8.91$
|141>   Q  -1.3290  17.78$  5.61$  8.71$
|142>   Q  0.6645  16.49$  2.77$  8.48$
|143>   Q  0.6645  17.77$  2.78$  9.3$
|144>   Q  -1.3290  17.3$  2.61$  8.64$
|145>   Q  0.6645  8.89$  0.78$  13.55$
|146>   Q  0.6645  10.22$  0.65$  14.39$
|147>   Q  -1.3290  9.44$  0.39$  14.05$
|148>   Q  0.6645  14.49$  13.76$  18.14$
|149>   Q  0.6645  15.65$  12.94$  17.88$
|150>   Q  -1.3290  14.87$  13.05$  18.06$
|151>   Q  0.6645  12.38$  6.53$  15.47$
|152>   Q  0.6645  13.45$  6.9$  14.35$
|153>   Q  -1.3290  13.09$  6.89$  15.14$
|154>   Q  0.6645  7.34$  15.69$  9.69$
|155>   Q  0.6645  7.44$  16.39$  8.36$
|156>   Q  -1.3290  7.25$  16.33$  9.16$
|157>   Q  0.6645  18.16$  11.41$  7.63$
|158>   Q  0.6645  18.88$  10.17$  6.96$
|159>   Q  -1.3290  18.58$  10.64$  7.61$
|160>   Q  0.6645  12.42$  7.52$  20.02$
|161>   Q  0.6645  11.95$  8.27$  18.84$
|162>   Q  -1.3290  12.04$  7.61$  19.29$
|163>   Q  0.6645  19.85$  9.85$  13.68$
|164>   Q  0.6645  20.67$  11.06$  13.55$
|165>   Q  -1.3290  19.95$  10.66$  13.64$
|166>   Q  0.6645  21.01$  4.81$  7.72$
|167>   Q  0.6645  19.58$  5.27$  7.44$
|168>   Q  -1.3290  20.42$  5.35$  7.44$
|169>   Q  0.6645  8.55$  8.1$  16.3$
|170>   Q  0.6645  10.01$  8.19$  16.73$
|171>   Q  -1.3290  9.36$  7.89$  16.28$
|172>   Q  0.6645  7.9$  12.23$  -0.29$
|173>   Q  0.6645  9.14$  11.29$  -0.2$
|174>   Q  -1.3290  8.4$  11.63$  0.05$
|175>   Q  0.6645  4.7$  18.23$  9.92$
|176>   Q  0.6645  6.2$  18.17$  9.9$
|177>   Q  -1.3290  5.47$  18.5$  10.12$
|178>   Q  0.6645  8.74$  18.4$  19.18$
|179>   Q  0.6645  7.26$  18.74$  18.65$
|180>   Q  -1.3290  8.15$  18.7$  18.6$
|181>   Q  0.6645  14.59$  16.57$  13.55$
|182>   Q  0.6645  15.46$  17.8$  13.87$
|183>   Q  -1.3290  15.09$  17.06$  14.03$
|184>   Q  0.6645  15.39$  17.56$  19.69$
|185>   Q  0.6645  14.88$  18.15$  18.32$
|186>   Q  -1.3290  15.09$  18.19$  19.18$
|187>   Q  0.6645  4.54$  14.55$  7.09$
|188>   Q  0.6645  3.8$  15.67$  6.26$
|189>   Q  -1.3290  4.45$  15.32$  6.74$
|190>   Q  0.6645  12.77$  0.39$  7.98$
|191>   Q  0.6645  11.75$  1.28$  7.2$
|192>   Q  -1.3290  12.09$  0.92$  7.89$
|193>   Q  0.6645  9.65$  17.94$  5.73$
|194>   Q  0.6645  10.69$  16.96$  6.02$
|195>   Q  -1.3290  10.42$  17.72$  5.82$
|196>   Q  0.6645  5.63$  7.62$  2.37$
|197>   Q  0.6645  5.1$  6.2$  2.01$
|198>   Q  -1.3290  5.47$  6.78$  2.51$
|199>   Q  0.6645  12.57$  14.84$  4.56$
|200>   Q  0.6645  13.31$  14.87$  3.29$
|201>   Q  -1.3290  13.22$  14.64$  4.08$
|202>   Q  0.6645  6.51$  2.2$  7.4$
|203>   Q  0.6645  6.3$  3.25$  8.44$
|204>   Q  -1.3290  6.56$  2.52$  8.17$
|205>   Q  0.6645  2.67$  14.34$  9.15$
|206>   Q  0.6645  2.32$  15.83$  9.14$
|207>   Q  -1.3290  2.16$  15.01$  9.25$
|208>   Q  0.6645  0.08$  15.45$  17.57$
|209>   Q  0.6645  1.57$  15.37$  16.93$
|210>   Q  -1.3290  0.93$  15.27$  17.51$
|211>   Q  0.6645  7.54$  9.69$  0.4$
|212>   Q  0.6645  7.75$  8.57$  1.48$
|213>   Q  -1.3290  7.32$  8.99$  0.84$
|214>   Q  0.6645  8.11$  19.06$  4.43$
|215>   Q  0.6645  8.07$  19.33$  5.99$
|216>   Q  -1.3290  7.99$  18.87$  5.26$
|217>   Q  0.6645  5.69$  10.61$  1.8$
|218>   Q  0.6645  4.7$  10.01$  0.75$
|219>   Q  -1.3290  4.93$  10.43$  1.49$
|220>   Q  0.6645  10.89$  13.33$  2.65$
|221>   Q  0.6645  11.12$  11.82$  2.39$
|222>   Q  -1.3290  11.23$  12.65$  2.29$
|223>   Q  0.6645  13.53$  4.04$  16.56$
|224>   Q  0.6645  14.21$  5.3$  15.85$
|225>   Q  -1.3290  14.06$  4.47$  16.03$
|226>   Q  0.6645  16.24$  11.58$  6.89$
|227>   Q  0.6645  15.47$  10.46$  6.16$
|228>   Q  -1.3290  15.78$  11.25$  6.26$
|229>   Q  0.6645  14.79$  3.8$  3.47$
|230>   Q  0.6645  13.59$  4.5$  2.71$
|231>   Q  -1.3290  14.08$  3.83$  3.01$
|232>   Q  0.6645  9.7$  19.67$  9.37$
|233>   Q  0.6645  8.45$  20.3$  9.72$
|234>   Q  -1.3290  8.99$  19.71$  9.79$
|235>   Q  0.6645  5.6$  6.17$  19.56$
|236>   Q  0.6645  6.6$  6.72$  20.47$
|237>   Q  -1.3290  5.87$  6.43$  20.28$
|238>   Q  0.6645  12.46$  0.77$  14.45$
|239>   Q  0.6645  11.99$  2.03$  15.22$
|240>   Q  -1.3290  11.91$  1.39$  14.64$
|241>   Q  0.6645  15.47$  2.26$  14.9$
|242>   Q  0.6645  14.87$  2.1$  13.47$
|243>   Q  -1.3290  15.51$  2.21$  14.06$
|244>   Q  0.6645  8.06$  1.58$  5.86$
|245>   Q  0.6645  7.15$  2.08$  4.77$
|246>   Q  -1.3290  7.33$  1.68$  5.5$
|247>   Q  0.6645  16.38$  13.91$  6.08$
|248>   Q  0.6645  14.99$  14.44$  6.47$
|249>   Q  -1.3290  15.72$  14.43$  6$
|250>   Q  0.6645  6.94$  6.08$  3.41$
|251>   Q  0.6645  8.41$  5.35$  3.5$
|252>   Q  -1.3290  7.64$  5.69$  3.77$
|253>   Q  0.6645  17.5$  13.63$  16.53$
|254>   Q  0.6645  18.07$  13.02$  17.8$
|255>   Q  -1.3290  17.56$  13.01$  17.15$
|256>   Q  0.6645  14.1$  2.74$  9.68$
|257>   Q  0.6645  14.18$  2.62$  8.25$
|258>   Q  -1.3290  14.4$  2.96$  8.97$
|259>   Q  0.6645  19.03$  6.8$  4.21$
|260>   Q  0.6645  17.73$  6.18$  3.64$
|261>   Q  -1.3290  18.26$  6.8$  3.86$
|262>   Q  0.6645  13.5$  9.17$  2.81$
|263>   Q  0.6645  12.58$  8.5$  1.65$
|264>   Q  -1.3290  12.86$  8.63$  2.46$
|265>   Q  0.6645  11.97$  20.17$  9.16$
|266>   Q  0.6645  10.85$  20.23$  8.02$
|267>   Q  -1.3290  11.26$  19.91$  8.7$
|268>   Q  0.6645  16.75$  15.38$  14.57$
|269>   Q  0.6645  17.35$  13.95$  14.55$
|270>   Q  -1.3290  16.97$  14.63$  14.87$
|271>   Q  0.6645  7.8$  17.96$  16.67$
|272>   Q  0.6645  6.38$  17.3$  16.57$
|273>   Q  -1.3290  7.2$  17.47$  16.32$
|274>   Q  0.6645  4.49$  21.81$  12.22$
|275>   Q  0.6645  5.52$  20.67$  12.19$
|276>   Q  -1.3290  5.24$  21.47$  12.14$
|277>   Q  0.6645  19.52$  17.69$  12.3$
|278>   Q  0.6645  18.65$  18.8$  11.57$
|279>   Q  -1.3290  18.9$  18$  11.8$
|280>   Q  0.6645  15.64$  3.1$  5.66$
|281>   Q  0.6645  17.09$  3.37$  5.09$
|282>   Q  -1.3290  16.26$  3.55$  5.26$
|283>   Q  0.6645  15.27$  0.95$  10.85$
|284>   Q  0.6645  16.18$  0.83$  9.63$
|285>   Q  -1.3290  15.73$  0.54$  10.27$
|286>   Q  0.6645  5.63$  18.67$  12.14$
|287>   Q  0.6645  6.69$  18.33$  13.18$
|288>   Q  -1.3290  6.01$  18.74$  12.87$
|289>   Q  0.6645  14.31$  11.72$  21.25$
|290>   Q  0.6645  14.54$  12.03$  19.67$
|291>   Q  -1.3290  14.66$  11.67$  20.45$
|292>   Q  0.6645  13.4$  0.97$  11.35$
|293>   Q  0.6645  12.81$  2.23$  12.01$
|294>   Q  -1.3290  13.45$  1.75$  11.65$
|295>   Q  0.6645  4.34$  7.74$  9.87$
|296>   Q  0.6645  5.57$  7.44$  10.59$
|297>   Q  -1.3290  4.83$  7.27$  10.36$
|298>   Q  0.6645  12.57$  5.83$  4.27$
|299>   Q  0.6645  12.59$  6.74$  3.14$
|300>   Q  -1.3290  12.5$  5.99$  3.47$
|301>   Q  0.6645  12.12$  20.6$  11.51$
|302>   Q  0.6645  13.36$  20.08$  10.82$
|303>   Q  -1.3290  12.83$  20.66$  11.04$
|304>   Q  0.6645  9.63$  9.17$  2.21$
|305>   Q  0.6645  9.89$  7.61$  2.14$
|306>   Q  -1.3290  9.74$  8.4$  1.84$
|307>   Q  0.6645  5.72$  8.08$  15.76$
|308>   Q  0.6645  4.69$  7.36$  14.78$
|309>   Q  -1.3290  5.22$  7.46$  15.45$
|310>   Q  0.6645  7.08$  9.15$  4.41$
|311>   Q  0.6645  6.02$  10.04$  3.71$
|312>   Q  -1.3290  6.3$  9.4$  4.17$
|313>   Q  0.6645  3.31$  8.19$  17.1$
|314>   Q  0.6645  2.38$  9.27$  16.29$
|315>   Q  -1.3290  2.91$  8.96$  16.91$
|316>   Q  0.6645  3.89$  12.6$  4.13$
|317>   Q  0.6645  2.95$  12.17$  3.07$
|318>   Q  -1.3290  3.22$  12.69$  3.67$
|319>   Q  0.6645  14.19$  18.26$  9.66$
|320>   Q  0.6645  15.49$  18.96$  9.94$
|321>   Q  -1.3290  14.67$  18.93$  9.87$
|322>   Q  0.6645  0.48$  14.72$  14.5$
|323>   Q  0.6645  1.6$  15.52$  13.82$
|324>   Q  -1.3290  1.26$  15.07$  14.45$
|325>   Q  0.6645  6.08$  4.57$  12.04$
|326>   Q  0.6645  5.25$  3.59$  11.08$
|327>   Q  -1.3290  5.94$  4.05$  11.36$
|328>   Q  0.6645  10.66$  18.26$  13.33$
|329>   Q  0.6645  11.14$  16.87$  13.73$
|330>   Q  -1.3290  10.73$  17.6$  13.85$
|331>   Q  0.6645  10.11$  10.56$  4.29$
|332>   Q  0.6645  8.84$  11.23$  3.74$
|333>   Q  -1.3290  9.62$  10.87$  3.69$
|334>   Q  0.6645  16.76$  8.91$  1.13$
|335>   Q  0.6645  17.5$  8.53$  2.55$
|336>   Q  -1.3290  17.29$  8.95$  1.83$
|337>   Q  0.6645  12.82$  16.11$  17.16$
|338>   Q  0.6645  13.02$  14.73$  16.71$
|339>   Q  -1.3290  12.63$  15.32$  17.13$
|340>   Q  0.6645  1.53$  8.77$  11.89$
|341>   Q  0.6645  2.94$  8.79$  12.51$
|342>   Q  -1.3290  2.13$  8.61$  12.49$
|343>   Q  0.6645  15.55$  4.7$  13.72$
|344>   Q  0.6645  16.56$  5.59$  12.82$
|345>   Q  -1.3290  16.05$  5.37$  13.48$
|346>   Q  0.6645  4.25$  12.47$  8.25$
|347>   Q  0.6645  2.98$  12.68$  7.47$
|348>   Q  -1.3290  3.48$  12.74$  8.11$
|349>   Q  0.6645  6.64$  12.39$  7.96$
|350>   Q  0.6645  6.12$  12.3$  9.44$
|351>   Q  -1.3290  6.24$  12.02$  8.64$
|352>   Q  0.6645  3.8$  5.83$  5.66$
|353>   Q  0.6645  5.23$  5.56$  5.23$
|354>   Q  -1.3290  4.5$  5.34$  5.55$
|355>   Q  0.6645  9.8$  2.82$  6.67$
|356>   Q  0.6645  10.14$  1.97$  5.35$
|357>   Q  -1.3290  9.88$  2.11$  6.14$
|358>   Q  0.6645  0.16$  13.18$  12.75$
|359>   Q  0.6645  0.99$  11.98$  12.19$
|360>   Q  -1.3290  0.52$  12.39$  12.76$
|361>   Q  0.6645  8.22$  15.67$  17.65$
|362>   Q  0.6645  9.24$  14.75$  18.47$
|363>   Q  -1.3290  8.55$  15.26$  18.35$
|364>   Q  0.6645  12.21$  15.67$  8.02$
|365>   Q  0.6645  11.15$  14.94$  8.91$
|366>   Q  -1.3290  11.74$  14.99$  8.3$
|367>   Q  0.6645  9.3$  1.22$  10.29$
|368>   Q  0.6645  10.68$  1.29$  9.44$
|369>   Q  -1.3290  10.1$  1.53$  10.05$
|370>   Q  0.6645  13.02$  6.02$  18.41$
|371>   Q  0.6645  14.48$  5.54$  18.31$
|372>   Q  -1.3290  13.68$  5.46$  18.54$
|373>   Q  0.6645  5.07$  5.48$  9.13$
|374>   Q  0.6645  5.06$  5.49$  7.55$
|375>   Q  -1.3290  5.03$  5.16$  8.33$
|376>   Q  0.6645  -0.24$  9.13$  10.96$
|377>   Q  0.6645  0.22$  8.67$  9.62$
|378>   Q  -1.3290  0.32$  9.1$  10.33$
|379>   Q  0.6645  3.29$  17.5$  13.43$
|380>   Q  0.6645  4.36$  18.57$  14.08$
|381>   Q  -1.3290  3.66$  17.98$  14.06$
|382>   Q  0.6645  14$  8.1$  21.64$
|383>   Q  0.6645  13.43$  6.69$  22.03$
|384>   Q  -1.3290  13.41$  7.5$  21.75$
|385>   Q  0.6645  20.12$  13.83$  10.75$
|386>   Q  0.6645  18.84$  14.33$  9.91$
|387>   Q  -1.3290  19.34$  13.78$  10.35$
|388>   Q  0.6645  10.72$  2.47$  11.61$
|389>   Q  0.6645  11.15$  2.44$  13.15$
|390>   Q  -1.3290  11.06$  2.77$  12.35$
|391>   Q  0.6645  5.23$  11.25$  5.54$
|392>   Q  0.6645  6.07$  12.49$  5.12$
|393>   Q  -1.3290  5.36$  12.04$  5.31$
|394>   Q  0.6645  7.72$  9.6$  19.26$
|395>   Q  0.6645  8.24$  8.1$  19.45$
|396>   Q  -1.3290  8.26$  8.92$  19.19$
|397>   Q  0.6645  4.82$  8.91$  5.58$
|398>   Q  0.6645  5.61$  8.94$  6.95$
|399>   Q  -1.3290  4.91$  8.95$  6.43$
|400>   Q  0.6645  10.66$  18$  4.08$
|401>   Q  0.6645  9.94$  18.63$  2.93$
|402>   Q  -1.3290  10.5$  18.1$  3.29$
|403>   Q  0.6645  14.87$  16.48$  5.08$
|404>   Q  0.6645  14.41$  17.84$  4.54$
|405>   Q  -1.3290  14.79$  17.31$  5.08$
|406>   Q  0.6645  7.64$  11.86$  2.17$
|407>   Q  0.6645  7.09$  12.85$  3.03$
|408>   Q  -1.3290  7.22$  12.05$  2.82$
|409>   Q  0.6645  20.53$  5.94$  9.48$
|410>   Q  0.6645  21.05$  5.88$  10.92$
|411>   Q  -1.3290  20.69$  5.58$  10.24$
|412>   Q  0.6645  6.67$  2.87$  16.15$
|413>   Q  0.6645  7.42$  4.22$  15.88$
|414>   Q  -1.3290  7.12$  3.58$  16.36$
|415>   Q  0.6645  14.8$  5.82$  7.11$
|416>   Q  0.6645  14.32$  4.86$  8.23$
|417>   Q  -1.3290  14.23$  5.49$  7.66$
|418>   Q  0.6645  5.48$  6.04$  17.09$
|419>   Q  0.6645  6.23$  4.79$  17.55$
|420>   Q  -1.3290  5.7$  5.43$  17.64$
|421>   Q  0.6645  10.26$  9.23$  21.62$
|422>   Q  0.6645  9.87$  9.43$  20.26$
|423>   Q  -1.3290  10.2$  9.68$  20.95$
|424>   Q  0.6645  11.3$  12.98$  21.81$
|425>   Q  0.6645  11.57$  11.74$  21.01$
|426>   Q  -1.3290  11.51$  12.56$  21.1$
|427>   Q  0.6645  16.44$  18.23$  7.78$
|428>   Q  0.6645  15.77$  18.33$  6.35$
|429>   Q  -1.3290  16.07$  18.6$  7.11$
|430>   Q  0.6645  1.79$  9.75$  14.16$
|431>   Q  0.6645  1.49$  11.33$  14.28$
|432>   Q  -1.3290  1.53$  10.49$  14.54$
|433>   Q  0.6645  12.12$  17.07$  2.56$
|434>   Q  0.6645  12.47$  16.22$  1.2$
|435>   Q  -1.3290  12.59$  16.58$  2$
|436>   Q  0.6645  14.09$  16.07$  10.95$
|437>   Q  0.6645  13.87$  16.06$  9.44$
|438>   Q  -1.3290  14.29$  16.21$  10.15$
|439>   Q  0.6645  9.52$  7.35$  13.12$
|440>   Q  0.6645  9.48$  6.38$  11.87$
|441>   Q  -1.3290  9.15$  6.86$  12.52$
|442>   Q  0.6645  5.6$  11.17$  18.65$
|443>   Q  0.6645  5.56$  10.21$  19.94$
|444>   Q  -1.3290  5.93$  10.69$  19.35$
|445>   Q  0.6645  12.04$  2.26$  3.85$
|446>   Q  0.6645  11.05$  1.58$  3.05$
|447>   Q  -1.3290  11.37$  1.82$  3.76$
|448>   Q  0.6645  8.41$  20.86$  15$
|449>   Q  0.6645  7.64$  20.77$  16.38$
|450>   Q  -1.3290  7.84$  20.54$  15.57$
|451>   Q  0.6645  3.18$  18.04$  8.3$
|452>   Q  0.6645  3.9$  16.75$  8.14$
|453>   Q  -1.3290  3.36$  17.24$  8.5$
|454>   Q  0.6645  20.45$  11.98$  8.5$
|455>   Q  0.6645  21.82$  12.43$  9.18$
|456>   Q  -1.3290  21.23$  12.43$  8.57$
|457>   Q  0.6645  19.3$  9.23$  11.5$
|458>   Q  0.6645  19.23$  7.72$  11.75$
|459>   Q  -1.3290  19.57$  8.47$  11.76$
|460>   Q  0.6645  16.35$  19.6$  14.26$
|461>   Q  0.6645  16.06$  19.9$  12.69$
|462>   Q  -1.3290  15.89$  19.66$  13.52$
|463>   Q  0.6645  20.47$  9.52$  5.31$
|464>   Q  0.6645  19.05$  10.02$  4.84$
|465>   Q  -1.3290  19.62$  9.55$  5.29$
|466>   Q  0.6645  11.16$  13.34$  19.37$
|467>   Q  0.6645  11.32$  14.43$  18.18$
|468>   Q  -1.3290  10.9$  13.82$  18.68$
|469>   Q  0.6645  5.61$  19.78$  14.98$
|470>   Q  0.6645  4.31$  20.56$  14.76$
|471>   Q  -1.3290  4.85$  20.01$  15.18$
|472>   Q  0.6645  3.97$  16.71$  15.86$
|473>   Q  0.6645  3.87$  15.24$  15.65$
|474>   Q  -1.3290  4.12$  15.93$  16.07$
|475>   Q  0.6645  6.39$  10.02$  8.52$
|476>   Q  0.6645  7.4$  9.24$  7.8$
|477>   Q  -1.3290  6.74$  9.32$  8.27$
|478>   Q  0.6645  17.62$  17.31$  10.23$
|479>   Q  0.6645  16.15$  16.86$  9.75$
|480>   Q  -1.3290  16.96$  17.21$  9.67$
|481>   Q  0.6645  7.58$  5.69$  13.51$
|482>   Q  0.6645  6.24$  5.55$  14.07$
|483>   Q  -1.3290  6.95$  5.26$  13.83$
|484>   Q  0.6645  2.53$  15.7$  11.89$
|485>   Q  0.6645  1.67$  16.98$  11.61$
|486>   Q  -1.3290  2.18$  16.45$  12.05$
|487>   Q  0.6645  4.86$  18.46$  18.39$
|488>   Q  0.6645  5.33$  17.15$  19.2$
|489>   Q  -1.3290  5.4$  17.84$  18.66$
|490>   Q  0.6645  14.59$  1.08$  5.7$
|491>   Q  0.6645  14.9$  1.29$  7.09$
|492>   Q  -1.3290  14.69$  1.56$  6.36$
|493>   Q  0.6645  18.65$  10.07$  17.39$
|494>   Q  0.6645  18.34$  11.38$  16.51$
|495>   Q  -1.3290  18.78$  10.68$  16.8$
|496>   Q  0.6645  6.89$  15.18$  4.25$
|497>   Q  0.6645  6.17$  15.03$  2.87$
|498>   Q  -1.3290  6.81$  14.91$  3.45$
|499>   Q  0.6645  6.18$  3.25$  2.19$
|500>   Q  0.6645  6.98$  3.94$  3.36$
|501>   Q  -1.3290  6.73$  3.31$  2.83$
|502>   Q  0.6645  16.08$  6.87$  17.72$
|503>   Q  0.6645  16.61$  5.36$  17.34$
|504>   Q  -1.3290  16.4$  6.05$  17.83$
|505>   Q  0.6645  7.46$  16.93$  5.93$
|506>   Q  0.6645  6.23$  16.07$  6.43$
|507>   Q  -1.3290  7.01$  16.22$  6.25$
|508>   Q  0.6645  -0.37$  15.51$  11.55$
|509>   Q  0.6645  0.52$  14.64$  10.53$
|510>   Q  -1.3290  0.06$  14.81$  11.27$
|511>   Q  0.6645  13.39$  17.78$  7.26$
|512>   Q  0.6645  12.14$  18.06$  8.1$
|513>   Q  -1.3290  12.84$  17.62$  7.86$
|514>   Q  0.6645  12.59$  8.17$  12.97$
|515>   Q  0.6645  12.86$  7.19$  11.91$
|516>   Q  -1.3290  13.06$  7.63$  12.56$
|517>   Q  0.6645  7.87$  20.48$  7.49$
|518>   Q  0.6645  8.99$  21.62$  7.05$
|519>   Q  -1.3290  8.59$  20.8$  7.1$
|520>   Q  0.6645  14.38$  11.02$  2.81$
|521>   Q  0.6645  14.03$  10.58$  4.13$
|522>   Q  -1.3290  14.36$  10.47$  3.4$
|523>   Q  0.6645  2.56$  13.42$  11.11$
|524>   Q  0.6645  3$  13.49$  12.62$
|525>   Q  -1.3290  3.08$  13.6$  11.77$
|526>   Q  0.6645  13.01$  12.56$  1.89$
|527>   Q  0.6645  14.57$  13.01$  1.86$
|528>   Q  -1.3290  13.87$  12.51$  1.69$
|529>   Q  0.6645  7.09$  2.74$  12.63$
|530>   Q  0.6645  6.91$  1.3$  12.32$
|531>   Q  -1.3290  7.2$  1.93$  12.77$
|532>   Q  0.6645  7.52$  14.19$  6.88$
|533>   Q  0.6645  8.56$  13.15$  6.73$
|534>   Q  -1.3290  7.77$  13.43$  6.7$
|535>   Q  0.6645  10.78$  4.52$  11.55$
|536>   Q  0.6645  9.73$  4.91$  10.54$
|537>   Q  -1.3290  10.43$  5.04$  10.98$
|538>   Q  0.6645  11.59$  2.55$  17.48$
|539>   Q  0.6645  11.31$  4.08$  17.21$
|540>   Q  -1.3290  11.55$  3.29$  17.01$
|541>   Q  0.6645  6.53$  12.49$  20.13$
|542>   Q  0.6645  7.24$  13.7$  19.5$
|543>   Q  -1.3290  6.88$  13.27$  20.14$
|544>   Q  0.6645  2.15$  13.11$  19.27$
|545>   Q  0.6645  3.39$  12.73$  20.17$
|546>   Q  -1.3290  2.98$  12.98$  19.45$
|547>   Q  0.6645  11.83$  8.66$  4.18$
|548>   Q  0.6645  11.44$  7.86$  5.47$
|549>   Q  -1.3290  11.45$  8.54$  4.95$
|550>   Q  0.6645  10.07$  5.28$  1.45$
|551>   Q  0.6645  10.86$  5.57$  2.71$
|552>   Q  -1.3290  10.14$  5.49$  2.28$
|553>   Q  0.6645  7.88$  8.27$  11.75$
|554>   Q  0.6645  7.09$  8.93$  10.39$
|555>   Q  -1.3290  7.21$  8.6$  11.22$
|556>   Q  0.6645  10.27$  20.62$  12.92$
|557>   Q  0.6645  9.8$  20.05$  11.71$
|558>   Q  -1.3290  10.32$  20.11$  12.32$
|559>   Q  0.6645  14.17$  20.83$  14.17$
|560>   Q  0.6645  13.02$  20.2$  15.04$
|561>   Q  -1.3290  13.51$  20.85$  14.69$
|562>   Q  0.6645  3.73$  9.43$  8.22$
|563>   Q  0.6645  2.57$  8.74$  9.07$
|564>   Q  -1.3290  3.28$  9.2$  8.93$
|565>   Q  0.6645  11.26$  10.26$  16.86$
|566>   Q  0.6645  12.47$  9.45$  17$
|567>   Q  -1.3290  11.68$  9.61$  17.15$
|568>   Q  0.6645  5.28$  15.93$  -0.22$
|569>   Q  0.6645  6.26$  14.88$  -0.52$
|570>   Q  -1.3290  5.86$  15.41$  -0.01$
|571>   Q  0.6645  9.97$  15.84$  3.11$
|572>   Q  0.6645  8.84$  14.85$  3.16$
|573>   Q  -1.3290  9.62$  15.11$  3.26$
|574>   Q  0.6645  17.09$  16.01$  5.74$
|575>   Q  0.6645  17.64$  16.61$  4.53$
|576>   Q  -1.3290  17.63$  16.5$  5.34$
|577>   Q  0.6645  20.44$  7.08$  15.62$
|578>   Q  0.6645  18.98$  7.54$  15.21$
|579>   Q  -1.3290  19.65$  7.01$  15.23$
|580>   Q  0.6645  9.57$  8.29$  4.64$
|581>   Q  0.6645  8.28$  7.53$  4.34$
|582>   Q  -1.3290  8.73$  8.18$  4.61$
|583>   Q  0.6645  18.84$  12.34$  13.31$
|584>   Q  0.6645  18.36$  13.29$  12.2$
|585>   Q  -1.3290  18.4$  13$  12.99$
|586>   Q  0.6645  7.61$  4.75$  9.94$
|587>   Q  0.6645  8.27$  3.57$  9.15$
|588>   Q  -1.3290  8.2$  4.39$  9.43$
|589>   Q  0.6645  4.11$  14.58$  18.91$
|590>   Q  0.6645  4.62$  15.74$  18.01$
|591>   Q  -1.3290  4.64$  15.16$  18.65$
|592>   Q  0.6645  9.03$  16.46$  20.08$
|593>   Q  0.6645  9.03$  17.77$  21.02$
|594>   Q  -1.3290  9.37$  17.11$  20.56$
|595>   Q  0.6645  13.45$  18.3$  16.57$
|596>   Q  0.6645  14.48$  17.35$  16$
|597>   Q  -1.3290  14.01$  17.69$  16.62$
|598>   Q  0.6645  11.42$  18.49$  15.29$
|599>   Q  0.6645  11.14$  19.52$  16.44$
|600>   Q  -1.3290  11.65$  19.05$  15.89$
|601>   Q  0.6645  3.91$  10.58$  17.1$
|602>   Q  0.6645  3.68$  11.87$  17.76$
|603>   Q  -1.3290  4.13$  11.38$  17.32$
|604>   Q  0.6645  2.29$  12.05$  9.54$
|605>   Q  0.6645  1.32$  11.02$  10.2$
|606>   Q  -1.3290  1.62$  11.79$  10$
|607>   Q  0.6645  3.31$  7.75$  6.71$
|608>   Q  0.6645  2.05$  6.79$  7.02$
|609>   Q  -1.3290  2.59$  7.25$  6.53$
|610>   Q  0.6645  16.96$  3.68$  15.85$
|611>   Q  0.6645  17.1$  5.06$  15.21$
|612>   Q  -1.3290  17.29$  4.45$  15.76$
|613>   Q  0.6645  8.85$  5.23$  6.05$
|614>   Q  0.6645  8.86$  4.74$  7.51$
|615>   Q  -1.3290  9.16$  4.84$  6.73$
|616>   Q  0.6645  20.65$  15.45$  14.09$
|617>   Q  0.6645  19.63$  14.22$  13.77$
|618>   Q  -1.3290  20.34$  14.62$  14.14$
|619>   Q  0.6645  17.72$  9.26$  14$
|620>   Q  0.6645  18.17$  9.64$  15.46$
|621>   Q  -1.3290  17.86$  9.15$  14.85$
|622>   Q  0.6645  3.83$  12.67$  15.79$
|623>   Q  0.6645  2.87$  13.59$  15.08$
|624>   Q  -1.3290  3.55$  13.14$  15.18$
|625>   Q  0.6645  5.83$  19.29$  6.91$
|626>   Q  0.6645  5.79$  19.52$  8.52$
|627>   Q  -1.3290  6.08$  19.59$  7.7$
|628>   Q  0.6645  17.42$  10.7$  2.94$
|629>   Q  0.6645  16.82$  10.74$  4.31$
|630>   Q  -1.3290  17.35$  10.97$  3.72$
|631>   Q  0.6645  11.08$  5.37$  6.28$
|632>   Q  0.6645  12.51$  5.71$  6.69$
|633>   Q  -1.3290  11.83$  5.68$  6.15$
|634>   Q  0.6645  18.61$  13.16$  5.97$
|635>   Q  0.6645  18.21$  14.04$  7.21$
|636>   Q  -1.3290  18.21$  13.34$  6.71$
|637>   Q  0.6645  18.82$  10.51$  9.46$
|638>   Q  0.6645  19.24$  11.64$  10.44$
|639>   Q  -1.3290  19$  10.85$  10.23$
|640>   Q  0.6645  18.59$  5.81$  11.92$
|641>   Q  0.6645  18.2$  6.02$  10.57$
|642>   Q  -1.3290  18.12$  6.16$  11.36$
|643>   Q  0.6645  14.69$  8$  16.09$
|644>   Q  0.6645  16.25$  8.15$  15.83$
|645>   Q  -1.3290  15.49$  8.18$  16.28$
|646>   Q  0.6645  17.97$  16.15$  8.56$
|647>   Q  0.6645  18.92$  15.99$  7.32$
|648>   Q  -1.3290  18.56$  15.77$  8.07$
|649>   Q  0.6645  15.78$  5.61$  5.24$
|650>   Q  0.6645  16.61$  6.8$  5.83$
|651>   Q  -1.3290  15.91$  6.4$  5.53$
|652>   Q  0.6645  4.46$  6.3$  12.37$
|653>   Q  0.6645  3.84$  5.43$  13.59$
|654>   Q  -1.3290  4.15$  6.14$  13.17$
|655> *
|656> 
|657>                          ****END OF INPUT****
================================================================================

                     *******************************
                     * Energy+Gradient Calculation *
                     *******************************

---------------------------------
CARTESIAN COORDINATES (ANGSTROEM)
---------------------------------
  C     10.000000   12.230000   11.960000
  H      9.140000   12.500000   11.330000
  H     10.240000   13.160000   12.460000
  C     11.180000   11.690000   11.280000
  H     11.700000   12.400000   10.710000
  H     11.930000   11.420000   12.030000
  C     10.820000   10.600000   10.290000
  H      9.830000   10.930000    9.800000
  H     10.630000    9.650000   10.770000
  C     11.940000   10.480000    9.220000
  H     12.880000   10.240000    9.710000
  H     11.920000   11.440000    8.680000
  O     11.630000    9.430000    8.240000
  H     11.860000    8.580000    8.680000
  O      9.580000   11.360000   13.040000
  H      8.860000   11.860000   13.500000
  O     15.570000    9.030000    8.800000
  H     14.920000    8.790000    8.110000
  H     15.430000    8.480000    9.580000
  O      6.520000   11.020000   14.080000
  H      6.740000   11.940000   14.180000
  H      5.770000   11.120000   13.470000
  O     13.000000   11.610000   14.040000
  H     12.110000   11.360000   14.330000
  H     13.530000   11.110000   14.730000
  O     14.870000   12.310000   12.050000
  H     14.300000   11.830000   12.670000
  H     15.680000   11.870000   12.280000
  O      8.140000   13.870000   14.640000
  H      7.690000   13.810000   15.450000
  H      8.110000   14.770000   14.330000
  O     13.740000   13.040000    7.570000
  H     14.550000   12.930000    8.130000
  H     13.140000   13.590000    8.130000
  O     12.270000    6.980000    9.290000
  H     11.870000    6.330000    9.860000
  H     12.880000    6.550000    8.710000
  O      9.920000   15.280000   10.020000
  H      9.380000   14.940000   10.810000
  H      9.490000   16.110000    9.840000
  O      6.750000   13.270000   17.190000
  H      6.420000   14.060000   17.640000
  H      5.960000   12.790000   16.920000
  O     10.210000   12.310000    6.890000
  H     11.090000   12.300000    6.460000
  H      9.870000   11.390000    6.980000
  O     12.720000   12.020000    5.200000
  H     13.130000   12.010000    6.070000
  H     12.990000   12.840000    4.820000
  O     17.790000    7.850000    7.010000
  H     18.370000    8.310000    6.350000
  H     17.500000    8.530000    7.680000
  O     14.080000    8.850000    6.350000
  H     13.210000    8.840000    5.940000
  H     14.510000    7.970000    6.060000
  O      9.130000    9.600000    7.230000
  H      9.140000    9.390000    6.300000
  H     10.030000    9.500000    7.570000
  O     15.640000    8.020000   11.260000
  H     14.910000    7.620000   11.860000
  H     16.430000    7.490000   11.240000
  O     11.340000   14.910000   14.450000
  H     11.460000   15.410000   15.260000
  H     10.610000   14.290000   14.550000
  O     10.600000    8.770000   13.620000
  H     10.330000    8.840000   14.540000
  H     10.420000    9.680000   13.250000
  O      7.070000    9.220000   16.190000
  H      7.230000    9.550000   17.110000
  H      6.970000   10.020000   15.650000
  O     13.860000   10.600000   16.380000
  H     14.040000   11.280000   17.010000
  H     14.570000    9.980000   16.720000
  O      7.960000   16.590000   13.640000
  H      7.540000   16.820000   14.440000
  H      8.910000   16.760000   13.880000
  O     14.030000   14.120000   15.250000
  H     14.970000   13.880000   14.970000
  H     13.460000   13.390000   15.020000
  O     13.780000   15.130000   12.720000
  H     13.250000   14.900000   13.530000
  H     14.160000   14.310000   12.400000
  O     15.610000   11.810000    9.300000
  H     15.260000   11.890000   10.190000
  H     15.560000   10.830000    9.060000
  O      7.360000   14.740000   11.380000
  H      6.650000   14.080000   11.430000
  H      7.080000   15.430000   11.960000
  O      4.590000    9.950000   11.670000
  H      5.320000    9.340000   11.560000
  H      3.990000    9.790000   10.940000
  O      5.640000   12.580000   11.340000
  H      5.410000   11.630000   11.240000
  H      4.770000   13.000000   11.460000
  O     16.920000   10.210000   12.600000
  H     17.470000   10.630000   11.920000
  H     16.490000    9.410000   12.290000
  O     10.540000   11.860000   16.630000
  H      9.900000   12.240000   15.970000
  H     10.480000   12.380000   17.400000
  Q      9.670000    6.240000   17.470000
  Q     10.680000    6.360000   18.570000
  Q     10.150000    5.950000   18.070000
  Q     11.180000   14.530000    6.440000
  Q     10.380000   14.810000    5.110000
  Q     11.000000   14.940000    5.690000
  Q     15.560000   13.900000    4.000000
  Q     16.330000   12.650000    3.510000
  Q     16.020000   13.440000    3.450000
  Q     10.750000   16.070000   21.480000
  Q     11.700000   14.840000   21.000000
  Q     11.470000   15.580000   21.390000
  Q     17.680000    6.230000    8.130000
  Q     17.370000    4.880000    8.910000
  Q     17.780000    5.610000    8.710000
  Q     16.490000    2.770000    8.480000
  Q     17.770000    2.780000    9.300000
  Q     17.300000    2.610000    8.640000
  Q      8.890000    0.780000   13.550000
  Q     10.220000    0.650000   14.390000
  Q      9.440000    0.390000   14.050000
  Q     14.490000   13.760000   18.140000
  Q     15.650000   12.940000   17.880000
  Q     14.870000   13.050000   18.060000
  Q     12.380000    6.530000   15.470000
  Q     13.450000    6.900000   14.350000
  Q     13.090000    6.890000   15.140000
  Q      7.340000   15.690000    9.690000
  Q      7.440000   16.390000    8.360000
  Q      7.250000   16.330000    9.160000
  Q     18.160000   11.410000    7.630000
  Q     18.880000   10.170000    6.960000
  Q     18.580000   10.640000    7.610000
  Q     12.420000    7.520000   20.020000
  Q     11.950000    8.270000   18.840000
  Q     12.040000    7.610000   19.290000
  Q     19.850000    9.850000   13.680000
  Q     20.670000   11.060000   13.550000
  Q     19.950000   10.660000   13.640000
  Q     21.010000    4.810000    7.720000
  Q     19.580000    5.270000    7.440000
  Q     20.420000    5.350000    7.440000
  Q      8.550000    8.100000   16.300000
  Q     10.010000    8.190000   16.730000
  Q      9.360000    7.890000   16.280000
  Q      7.900000   12.230000   -0.290000
  Q      9.140000   11.290000   -0.200000
  Q      8.400000   11.630000    0.050000
  Q      4.700000   18.230000    9.920000
  Q      6.200000   18.170000    9.900000
  Q      5.470000   18.500000   10.120000
  Q      8.740000   18.400000   19.180000
  Q      7.260000   18.740000   18.650000
  Q      8.150000   18.700000   18.600000
  Q     14.590000   16.570000   13.550000
  Q     15.460000   17.800000   13.870000
  Q     15.090000   17.060000   14.030000
  Q     15.390000   17.560000   19.690000
  Q     14.880000   18.150000   18.320000
  Q     15.090000   18.190000   19.180000
  Q      4.540000   14.550000    7.090000
  Q      3.800000   15.670000    6.260000
  Q      4.450000   15.320000    6.740000
  Q     12.770000    0.390000    7.980000
  Q     11.750000    1.280000    7.200000
  Q     12.090000    0.920000    7.890000
  Q      9.650000   17.940000    5.730000
  Q     10.690000   16.960000    6.020000
  Q     10.420000   17.720000    5.820000
  Q      5.630000    7.620000    2.370000
  Q      5.100000    6.200000    2.010000
  Q      5.470000    6.780000    2.510000
  Q     12.570000   14.840000    4.560000
  Q     13.310000   14.870000    3.290000
  Q     13.220000   14.640000    4.080000
  Q      6.510000    2.200000    7.400000
  Q      6.300000    3.250000    8.440000
  Q      6.560000    2.520000    8.170000
  Q      2.670000   14.340000    9.150000
  Q      2.320000   15.830000    9.140000
  Q      2.160000   15.010000    9.250000
  Q      0.080000   15.450000   17.570000
  Q      1.570000   15.370000   16.930000
  Q      0.930000   15.270000   17.510000
  Q      7.540000    9.690000    0.400000
  Q      7.750000    8.570000    1.480000
  Q      7.320000    8.990000    0.840000
  Q      8.110000   19.060000    4.430000
  Q      8.070000   19.330000    5.990000
  Q      7.990000   18.870000    5.260000
  Q      5.690000   10.610000    1.800000
  Q      4.700000   10.010000    0.750000
  Q      4.930000   10.430000    1.490000
  Q     10.890000   13.330000    2.650000
  Q     11.120000   11.820000    2.390000
  Q     11.230000   12.650000    2.290000
  Q     13.530000    4.040000   16.560000
  Q     14.210000    5.300000   15.850000
  Q     14.060000    4.470000   16.030000
  Q     16.240000   11.580000    6.890000
  Q     15.470000   10.460000    6.160000
  Q     15.780000   11.250000    6.260000
  Q     14.790000    3.800000    3.470000
  Q     13.590000    4.500000    2.710000
  Q     14.080000    3.830000    3.010000
  Q      9.700000   19.670000    9.370000
  Q      8.450000   20.300000    9.720000
  Q      8.990000   19.710000    9.790000
  Q      5.600000    6.170000   19.560000
  Q      6.600000    6.720000   20.470000
  Q      5.870000    6.430000   20.280000
  Q     12.460000    0.770000   14.450000
  Q     11.990000    2.030000   15.220000
  Q     11.910000    1.390000   14.640000
  Q     15.470000    2.260000   14.900000
  Q     14.870000    2.100000   13.470000
  Q     15.510000    2.210000   14.060000
  Q      8.060000    1.580000    5.860000
  Q      7.150000    2.080000    4.770000
  Q      7.330000    1.680000    5.500000
  Q     16.380000   13.910000    6.080000
  Q     14.990000   14.440000    6.470000
  Q     15.720000   14.430000    6.000000
  Q      6.940000    6.080000    3.410000
  Q      8.410000    5.350000    3.500000
  Q      7.640000    5.690000    3.770000
  Q     17.500000   13.630000   16.530000
  Q     18.070000   13.020000   17.800000
  Q     17.560000   13.010000   17.150000
  Q     14.100000    2.740000    9.680000
  Q     14.180000    2.620000    8.250000
  Q     14.400000    2.960000    8.970000
  Q     19.030000    6.800000    4.210000
  Q     17.730000    6.180000    3.640000
  Q     18.260000    6.800000    3.860000
  Q     13.500000    9.170000    2.810000
  Q     12.580000    8.500000    1.650000
  Q     12.860000    8.630000    2.460000
  Q     11.970000   20.170000    9.160000
  Q     10.850000   20.230000    8.020000
  Q     11.260000   19.910000    8.700000
  Q     16.750000   15.380000   14.570000
  Q     17.350000   13.950000   14.550000
  Q     16.970000   14.630000   14.870000
  Q      7.800000   17.960000   16.670000
  Q      6.380000   17.300000   16.570000
  Q      7.200000   17.470000   16.320000
  Q      4.490000   21.810000   12.220000
  Q      5.520000   20.670000   12.190000
  Q      5.240000   21.470000   12.140000
  Q     19.520000   17.690000   12.300000
  Q     18.650000   18.800000   11.570000
  Q     18.900000   18.000000   11.800000
  Q     15.640000    3.100000    5.660000
  Q     17.090000    3.370000    5.090000
  Q     16.260000    3.550000    5.260000
  Q     15.270000    0.950000   10.850000
  Q     16.180000    0.830000    9.630000
  Q     15.730000    0.540000   10.270000
  Q      5.630000   18.670000   12.140000
  Q      6.690000   18.330000   13.180000
  Q      6.010000   18.740000   12.870000
  Q     14.310000   11.720000   21.250000
  Q     14.540000   12.030000   19.670000
  Q     14.660000   11.670000   20.450000
  Q     13.400000    0.970000   11.350000
  Q     12.810000    2.230000   12.010000
  Q     13.450000    1.750000   11.650000
  Q      4.340000    7.740000    9.870000
  Q      5.570000    7.440000   10.590000
  Q      4.830000    7.270000   10.360000
  Q     12.570000    5.830000    4.270000
  Q     12.590000    6.740000    3.140000
  Q     12.500000    5.990000    3.470000
  Q     12.120000   20.600000   11.510000
  Q     13.360000   20.080000   10.820000
  Q     12.830000   20.660000   11.040000
  Q      9.630000    9.170000    2.210000
  Q      9.890000    7.610000    2.140000
  Q      9.740000    8.400000    1.840000
  Q      5.720000    8.080000   15.760000
  Q      4.690000    7.360000   14.780000
  Q      5.220000    7.460000   15.450000
  Q      7.080000    9.150000    4.410000
  Q      6.020000   10.040000    3.710000
  Q      6.300000    9.400000    4.170000
  Q      3.310000    8.190000   17.100000
  Q      2.380000    9.270000   16.290000
  Q      2.910000    8.960000   16.910000
  Q      3.890000   12.600000    4.130000
  Q      2.950000   12.170000    3.070000
  Q      3.220000   12.690000    3.670000
  Q     14.190000   18.260000    9.660000
  Q     15.490000   18.960000    9.940000
  Q     14.670000   18.930000    9.870000
  Q      0.480000   14.720000   14.500000
  Q      1.600000   15.520000   13.820000
  Q      1.260000   15.070000   14.450000
  Q      6.080000    4.570000   12.040000
  Q      5.250000    3.590000   11.080000
  Q      5.940000    4.050000   11.360000
  Q     10.660000   18.260000   13.330000
  Q     11.140000   16.870000   13.730000
  Q     10.730000   17.600000   13.850000
  Q     10.110000   10.560000    4.290000
  Q      8.840000   11.230000    3.740000
  Q      9.620000   10.870000    3.690000
  Q     16.760000    8.910000    1.130000
  Q     17.500000    8.530000    2.550000
  Q     17.290000    8.950000    1.830000
  Q     12.820000   16.110000   17.160000
  Q     13.020000   14.730000   16.710000
  Q     12.630000   15.320000   17.130000
  Q      1.530000    8.770000   11.890000
  Q      2.940000    8.790000   12.510000
  Q      2.130000    8.610000   12.490000
  Q     15.550000    4.700000   13.720000
  Q     16.560000    5.590000   12.820000
  Q     16.050000    5.370000   13.480000
  Q      4.250000   12.470000    8.250000
  Q      2.980000   12.680000    7.470000
  Q      3.480000   12.740000    8.110000
  Q      6.640000   12.390000    7.960000
  Q      6.120000   12.300000    9.440000
  Q      6.240000   12.020000    8.640000
  Q      3.800000    5.830000    5.660000
  Q      5.230000    5.560000    5.230000
  Q      4.500000    5.340000    5.550000
  Q      9.800000    2.820000    6.670000
  Q     10.140000    1.970000    5.350000
  Q      9.880000    2.110000    6.140000
  Q      0.160000   13.180000   12.750000
  Q      0.990000   11.980000   12.190000
  Q      0.520000   12.390000   12.760000
  Q      8.220000   15.670000   17.650000
  Q      9.240000   14.750000   18.470000
  Q      8.550000   15.260000   18.350000
  Q     12.210000   15.670000    8.020000
  Q     11.150000   14.940000    8.910000
  Q     11.740000   14.990000    8.300000
  Q      9.300000    1.220000   10.290000
  Q     10.680000    1.290000    9.440000
  Q     10.100000    1.530000   10.050000
  Q     13.020000    6.020000   18.410000
  Q     14.480000    5.540000   18.310000
  Q     13.680000    5.460000   18.540000
  Q      5.070000    5.480000    9.130000
  Q      5.060000    5.490000    7.550000
  Q      5.030000    5.160000    8.330000
  Q     -0.240000    9.130000   10.960000
  Q      0.220000    8.670000    9.620000
  Q      0.320000    9.100000   10.330000
  Q      3.290000   17.500000   13.430000
  Q      4.360000   18.570000   14.080000
  Q      3.660000   17.980000   14.060000
  Q     14.000000    8.100000   21.640000
  Q     13.430000    6.690000   22.030000
  Q     13.410000    7.500000   21.750000
  Q     20.120000   13.830000   10.750000
  Q     18.840000   14.330000    9.910000
  Q     19.340000   13.780000   10.350000
  Q     10.720000    2.470000   11.610000
  Q     11.150000    2.440000   13.150000
  Q     11.060000    2.770000   12.350000
  Q      5.230000   11.250000    5.540000
  Q      6.070000   12.490000    5.120000
  Q      5.360000   12.040000    5.310000
  Q      7.720000    9.600000   19.260000
  Q      8.240000    8.100000   19.450000
  Q      8.260000    8.920000   19.190000
  Q      4.820000    8.910000    5.580000
  Q      5.610000    8.940000    6.950000
  Q      4.910000    8.950000    6.430000
  Q     10.660000   18.000000    4.080000
  Q      9.940000   18.630000    2.930000
  Q     10.500000   18.100000    3.290000
  Q     14.870000   16.480000    5.080000
  Q     14.410000   17.840000    4.540000
  Q     14.790000   17.310000    5.080000
  Q      7.640000   11.860000    2.170000
  Q      7.090000   12.850000    3.030000
  Q      7.220000   12.050000    2.820000
  Q     20.530000    5.940000    9.480000
  Q     21.050000    5.880000   10.920000
  Q     20.690000    5.580000   10.240000
  Q      6.670000    2.870000   16.150000
  Q      7.420000    4.220000   15.880000
  Q      7.120000    3.580000   16.360000
  Q     14.800000    5.820000    7.110000
  Q     14.320000    4.860000    8.230000
  Q     14.230000    5.490000    7.660000
  Q      5.480000    6.040000   17.090000
  Q      6.230000    4.790000   17.550000
  Q      5.700000    5.430000   17.640000
  Q     10.260000    9.230000   21.620000
  Q      9.870000    9.430000   20.260000
  Q     10.200000    9.680000   20.950000
  Q     11.300000   12.980000   21.810000
  Q     11.570000   11.740000   21.010000
  Q     11.510000   12.560000   21.100000
  Q     16.440000   18.230000    7.780000
  Q     15.770000   18.330000    6.350000
  Q     16.070000   18.600000    7.110000
  Q      1.790000    9.750000   14.160000
  Q      1.490000   11.330000   14.280000
  Q      1.530000   10.490000   14.540000
  Q     12.120000   17.070000    2.560000
  Q     12.470000   16.220000    1.200000
  Q     12.590000   16.580000    2.000000
  Q     14.090000   16.070000   10.950000
  Q     13.870000   16.060000    9.440000
  Q     14.290000   16.210000   10.150000
  Q      9.520000    7.350000   13.120000
  Q      9.480000    6.380000   11.870000
  Q      9.150000    6.860000   12.520000
  Q      5.600000   11.170000   18.650000
  Q      5.560000   10.210000   19.940000
  Q      5.930000   10.690000   19.350000
  Q     12.040000    2.260000    3.850000
  Q     11.050000    1.580000    3.050000
  Q     11.370000    1.820000    3.760000
  Q      8.410000   20.860000   15.000000
  Q      7.640000   20.770000   16.380000
  Q      7.840000   20.540000   15.570000
  Q      3.180000   18.040000    8.300000
  Q      3.900000   16.750000    8.140000
  Q      3.360000   17.240000    8.500000
  Q     20.450000   11.980000    8.500000
  Q     21.820000   12.430000    9.180000
  Q     21.230000   12.430000    8.570000
  Q     19.300000    9.230000   11.500000
  Q     19.230000    7.720000   11.750000
  Q     19.570000    8.470000   11.760000
  Q     16.350000   19.600000   14.260000
  Q     16.060000   19.900000   12.690000
  Q     15.890000   19.660000   13.520000
  Q     20.470000    9.520000    5.310000
  Q     19.050000   10.020000    4.840000
  Q     19.620000    9.550000    5.290000
  Q     11.160000   13.340000   19.370000
  Q     11.320000   14.430000   18.180000
  Q     10.900000   13.820000   18.680000
  Q      5.610000   19.780000   14.980000
  Q      4.310000   20.560000   14.760000
  Q      4.850000   20.010000   15.180000
  Q      3.970000   16.710000   15.860000
  Q      3.870000   15.240000   15.650000
  Q      4.120000   15.930000   16.070000
  Q      6.390000   10.020000    8.520000
  Q      7.400000    9.240000    7.800000
  Q      6.740000    9.320000    8.270000
  Q     17.620000   17.310000   10.230000
  Q     16.150000   16.860000    9.750000
  Q     16.960000   17.210000    9.670000
  Q      7.580000    5.690000   13.510000
  Q      6.240000    5.550000   14.070000
  Q      6.950000    5.260000   13.830000
  Q      2.530000   15.700000   11.890000
  Q      1.670000   16.980000   11.610000
  Q      2.180000   16.450000   12.050000
  Q      4.860000   18.460000   18.390000
  Q      5.330000   17.150000   19.200000
  Q      5.400000   17.840000   18.660000
  Q     14.590000    1.080000    5.700000
  Q     14.900000    1.290000    7.090000
  Q     14.690000    1.560000    6.360000
  Q     18.650000   10.070000   17.390000
  Q     18.340000   11.380000   16.510000
  Q     18.780000   10.680000   16.800000
  Q      6.890000   15.180000    4.250000
  Q      6.170000   15.030000    2.870000
  Q      6.810000   14.910000    3.450000
  Q      6.180000    3.250000    2.190000
  Q      6.980000    3.940000    3.360000
  Q      6.730000    3.310000    2.830000
  Q     16.080000    6.870000   17.720000
  Q     16.610000    5.360000   17.340000
  Q     16.400000    6.050000   17.830000
  Q      7.460000   16.930000    5.930000
  Q      6.230000   16.070000    6.430000
  Q      7.010000   16.220000    6.250000
  Q     -0.370000   15.510000   11.550000
  Q      0.520000   14.640000   10.530000
  Q      0.060000   14.810000   11.270000
  Q     13.390000   17.780000    7.260000
  Q     12.140000   18.060000    8.100000
  Q     12.840000   17.620000    7.860000
  Q     12.590000    8.170000   12.970000
  Q     12.860000    7.190000   11.910000
  Q     13.060000    7.630000   12.560000
  Q      7.870000   20.480000    7.490000
  Q      8.990000   21.620000    7.050000
  Q      8.590000   20.800000    7.100000
  Q     14.380000   11.020000    2.810000
  Q     14.030000   10.580000    4.130000
  Q     14.360000   10.470000    3.400000
  Q      2.560000   13.420000   11.110000
  Q      3.000000   13.490000   12.620000
  Q      3.080000   13.600000   11.770000
  Q     13.010000   12.560000    1.890000
  Q     14.570000   13.010000    1.860000
  Q     13.870000   12.510000    1.690000
  Q      7.090000    2.740000   12.630000
  Q      6.910000    1.300000   12.320000
  Q      7.200000    1.930000   12.770000
  Q      7.520000   14.190000    6.880000
  Q      8.560000   13.150000    6.730000
  Q      7.770000   13.430000    6.700000
  Q     10.780000    4.520000   11.550000
  Q      9.730000    4.910000   10.540000
  Q     10.430000    5.040000   10.980000
  Q     11.590000    2.550000   17.480000
  Q     11.310000    4.080000   17.210000
  Q     11.550000    3.290000   17.010000
  Q      6.530000   12.490000   20.130000
  Q      7.240000   13.700000   19.500000
  Q      6.880000   13.270000   20.140000
  Q      2.150000   13.110000   19.270000
  Q      3.390000   12.730000   20.170000
  Q      2.980000   12.980000   19.450000
  Q     11.830000    8.660000    4.180000
  Q     11.440000    7.860000    5.470000
  Q     11.450000    8.540000    4.950000
  Q     10.070000    5.280000    1.450000
  Q     10.860000    5.570000    2.710000
  Q     10.140000    5.490000    2.280000
  Q      7.880000    8.270000   11.750000
  Q      7.090000    8.930000   10.390000
  Q      7.210000    8.600000   11.220000
  Q     10.270000   20.620000   12.920000
  Q      9.800000   20.050000   11.710000
  Q     10.320000   20.110000   12.320000
  Q     14.170000   20.830000   14.170000
  Q     13.020000   20.200000   15.040000
  Q     13.510000   20.850000   14.690000
  Q      3.730000    9.430000    8.220000
  Q      2.570000    8.740000    9.070000
  Q      3.280000    9.200000    8.930000
  Q     11.260000   10.260000   16.860000
  Q     12.470000    9.450000   17.000000
  Q     11.680000    9.610000   17.150000
  Q      5.280000   15.930000   -0.220000
  Q      6.260000   14.880000   -0.520000
  Q      5.860000   15.410000   -0.010000
  Q      9.970000   15.840000    3.110000
  Q      8.840000   14.850000    3.160000
  Q      9.620000   15.110000    3.260000
  Q     17.090000   16.010000    5.740000
  Q     17.640000   16.610000    4.530000
  Q     17.630000   16.500000    5.340000
  Q     20.440000    7.080000   15.620000
  Q     18.980000    7.540000   15.210000
  Q     19.650000    7.010000   15.230000
  Q      9.570000    8.290000    4.640000
  Q      8.280000    7.530000    4.340000
  Q      8.730000    8.180000    4.610000
  Q     18.840000   12.340000   13.310000
  Q     18.360000   13.290000   12.200000
  Q     18.400000   13.000000   12.990000
  Q      7.610000    4.750000    9.940000
  Q      8.270000    3.570000    9.150000
  Q      8.200000    4.390000    9.430000
  Q      4.110000   14.580000   18.910000
  Q      4.620000   15.740000   18.010000
  Q      4.640000   15.160000   18.650000
  Q      9.030000   16.460000   20.080000
  Q      9.030000   17.770000   21.020000
  Q      9.370000   17.110000   20.560000
  Q     13.450000   18.300000   16.570000
  Q     14.480000   17.350000   16.000000
  Q     14.010000   17.690000   16.620000
  Q     11.420000   18.490000   15.290000
  Q     11.140000   19.520000   16.440000
  Q     11.650000   19.050000   15.890000
  Q      3.910000   10.580000   17.100000
  Q      3.680000   11.870000   17.760000
  Q      4.130000   11.380000   17.320000
  Q      2.290000   12.050000    9.540000
  Q      1.320000   11.020000   10.200000
  Q      1.620000   11.790000   10.000000
  Q      3.310000    7.750000    6.710000
  Q      2.050000    6.790000    7.020000
  Q      2.590000    7.250000    6.530000
  Q     16.960000    3.680000   15.850000
  Q     17.100000    5.060000   15.210000
  Q     17.290000    4.450000   15.760000
  Q      8.850000    5.230000    6.050000
  Q      8.860000    4.740000    7.510000
  Q      9.160000    4.840000    6.730000
  Q     20.650000   15.450000   14.090000
  Q     19.630000   14.220000   13.770000
  Q     20.340000   14.620000   14.140000
  Q     17.720000    9.260000   14.000000
  Q     18.170000    9.640000   15.460000
  Q     17.860000    9.150000   14.850000
  Q      3.830000   12.670000   15.790000
  Q      2.870000   13.590000   15.080000
  Q      3.550000   13.140000   15.180000
  Q      5.830000   19.290000    6.910000
  Q      5.790000   19.520000    8.520000
  Q      6.080000   19.590000    7.700000
  Q     17.420000   10.700000    2.940000
  Q     16.820000   10.740000    4.310000
  Q     17.350000   10.970000    3.720000
  Q     11.080000    5.370000    6.280000
  Q     12.510000    5.710000    6.690000
  Q     11.830000    5.680000    6.150000
  Q     18.610000   13.160000    5.970000
  Q     18.210000   14.040000    7.210000
  Q     18.210000   13.340000    6.710000
  Q     18.820000   10.510000    9.460000
  Q     19.240000   11.640000   10.440000
  Q     19.000000   10.850000   10.230000
  Q     18.590000    5.810000   11.920000
  Q     18.200000    6.020000   10.570000
  Q     18.120000    6.160000   11.360000
  Q     14.690000    8.000000   16.090000
  Q     16.250000    8.150000   15.830000
  Q     15.490000    8.180000   16.280000
  Q     17.970000   16.150000    8.560000
  Q     18.920000   15.990000    7.320000
  Q     18.560000   15.770000    8.070000
  Q     15.780000    5.610000    5.240000
  Q     16.610000    6.800000    5.830000
  Q     15.910000    6.400000    5.530000
  Q      4.460000    6.300000   12.370000
  Q      3.840000    5.430000   13.590000
  Q      4.150000    6.140000   13.170000

----------------------------
CARTESIAN COORDINATES (A.U.)
----------------------------
  NO LB      ZA    FRAG     MASS         X           Y           Z
   0 C     6.0000    0    12.011   18.897261   23.111351   22.601125
   1 H     1.0000    0     1.008   17.272097   23.621577   21.410597
   2 H     1.0000    0     1.008   19.350796   24.868796   23.545988
   3 C     6.0000    0    12.011   21.127138   22.090899   21.316111
   4 H     1.0000    0     1.008   22.109796   23.432604   20.238967
   5 H     1.0000    0     1.008   22.544433   21.580672   22.733405
   6 C     6.0000    0    12.011   20.446837   20.031097   19.445282
   7 H     1.0000    0     1.008   18.576008   20.654707   18.519316
   8 H     1.0000    0     1.008   20.087789   18.235857   20.352350
   9 C     6.0000    0    12.011   22.563330   19.804330   17.423275
  10 H     1.0000    0     1.008   24.339673   19.350796   18.349241
  11 H     1.0000    0     1.008   22.525536   21.618467   16.402823
  12 O     8.0000    0    15.999   21.977515   17.820117   15.571343
  13 H     1.0000    0     1.008   22.412152   16.213850   16.402823
  14 O     8.0000    0    15.999   18.103576   21.467289   24.642029
  15 H     1.0000    0     1.008   16.742974   22.412152   25.511303
  16 O     8.0000    0    15.999   29.423036   17.064227   16.629590
  17 H     1.0000    0     1.008   28.194714   16.610693   15.325679
  18 H     1.0000    0     1.008   29.158474   16.024878   18.103576
  19 O     8.0000    0    15.999   12.321014   20.824782   26.607344
  20 H     1.0000    0     1.008   12.736754   22.563330   26.796317
  21 H     1.0000    0     1.008   10.903720   21.013755   25.454611
  22 O     8.0000    0    15.999   24.566440   21.939720   26.531755
  23 H     1.0000    0     1.008   22.884583   21.467289   27.079775
  24 H     1.0000    0     1.008   25.567995   20.994857   27.835666
  25 O     8.0000    0    15.999   28.100228   23.262529   22.771200
  26 H     1.0000    0     1.008   27.023084   22.355460   23.942830
  27 H     1.0000    0     1.008   29.630906   22.431049   23.205837
  28 O     8.0000    0    15.999   15.382371   26.210501   27.665591
  29 H     1.0000    0     1.008   14.531994   26.097118   29.196269
  30 H     1.0000    0     1.008   15.325679   27.911255   27.079775
  31 O     8.0000    0    15.999   25.964837   24.642029   14.305227
  32 H     1.0000    0     1.008   27.495515   24.434159   15.363473
  33 H     1.0000    0     1.008   24.831001   25.681378   15.363473
  34 O     8.0000    0    15.999   23.186940   13.190288   17.555556
  35 H     1.0000    0     1.008   22.431049   11.961966   18.632700
  36 H     1.0000    0     1.008   24.339673   12.377706   16.459515
  37 O     8.0000    0    15.999   18.746083   28.875015   18.935056
  38 H     1.0000    0     1.008   17.725631   28.232508   20.427940
  39 H     1.0000    0     1.008   17.933501   30.443488   18.594905
  40 O     8.0000    0    15.999   12.755651   25.076666   32.484392
  41 H     1.0000    0     1.008   12.132042   26.569549   33.334769
  42 H     1.0000    0     1.008   11.262768   24.169597   31.974166
  43 O     8.0000    0    15.999   19.294104   23.262529   13.020213
  44 H     1.0000    0     1.008   20.957063   23.243631   12.207631
  45 H     1.0000    0     1.008   18.651597   21.523981   13.190288
  46 O     8.0000    0    15.999   24.037316   22.714508    9.826576
  47 H     1.0000    0     1.008   24.812104   22.695611   11.470638
  48 H     1.0000    0     1.008   24.547542   24.264084    9.108480
  49 O     8.0000    0    15.999   33.618228   14.834350   13.246980
  50 H     1.0000    0     1.008   34.714269   15.703624   11.999761
  51 H     1.0000    0     1.008   33.070207   16.119364   14.513097
  52 O     8.0000    0    15.999   26.607344   16.724076   11.999761
  53 H     1.0000    0     1.008   24.963282   16.705179   11.224973
  54 H     1.0000    0     1.008   27.419926   15.061117   11.451740
  55 O     8.0000    0    15.999   17.253200   18.141371   13.662720
  56 H     1.0000    0     1.008   17.272097   17.744528   11.905275
  57 H     1.0000    0     1.008   18.953953   17.952398   14.305227
  58 O     8.0000    0    15.999   29.555317   15.155604   21.278316
  59 H     1.0000    0     1.008   28.175817   14.399713   22.412152
  60 H     1.0000    0     1.008   31.048200   14.154049   21.240522
  61 O     8.0000    0    15.999   21.429494   28.175817   27.306543
  62 H     1.0000    0     1.008   21.656261   29.120680   28.837221
  63 H     1.0000    0     1.008   20.049994   27.004186   27.495515
  64 O     8.0000    0    15.999   20.031097   16.572898   25.738070
  65 H     1.0000    0     1.008   19.520871   16.705179   27.476618
  66 H     1.0000    0     1.008   19.690946   18.292549   25.038871
  67 O     8.0000    0    15.999   13.360364   17.423275   30.594666
  68 H     1.0000    0     1.008   13.662720   18.046885   32.333214
  69 H     1.0000    0     1.008   13.171391   18.935056   29.574214
  70 O     8.0000    0    15.999   26.191604   20.031097   30.953714
  71 H     1.0000    0     1.008   26.531755   21.316111   32.144242
  72 H     1.0000    0     1.008   27.533310   18.859467   31.596221
  73 O     8.0000    0    15.999   15.042220   31.350557   25.775864
  74 H     1.0000    0     1.008   14.248535   31.785194   27.287645
  75 H     1.0000    0     1.008   16.837460   31.671810   26.229399
  76 O     8.0000    0    15.999   26.512858   26.682933   28.818324
  77 H     1.0000    0     1.008   28.289200   26.229399   28.289200
  78 H     1.0000    0     1.008   25.435714   25.303433   28.383687
  79 O     8.0000    0    15.999   26.040426   28.591556   24.037316
  80 H     1.0000    0     1.008   25.038871   28.156919   25.567995
  81 H     1.0000    0     1.008   26.758522   27.041981   23.432604
  82 O     8.0000    0    15.999   29.498625   22.317666   17.574453
  83 H     1.0000    0     1.008   28.837221   22.468844   19.256309
  84 H     1.0000    0     1.008   29.404139   20.465734   17.120919
  85 O     8.0000    0    15.999   13.908384   27.854563   21.505083
  86 H     1.0000    0     1.008   12.566679   26.607344   21.599570
  87 H     1.0000    0     1.008   13.379261   29.158474   22.601125
  88 O     8.0000    0    15.999    8.673843   18.802775   22.053104
  89 H     1.0000    0     1.008   10.053343   17.650042   21.845234
  90 H     1.0000    0     1.008    7.540007   18.500419   20.673604
  91 O     8.0000    0    15.999   10.658055   23.772755   21.429494
  92 H     1.0000    0     1.008   10.223418   21.977515   21.240522
  93 H     1.0000    0     1.008    9.013994   24.566440   21.656261
  94 O     8.0000    0    15.999   31.974166   19.294104   23.810549
  95 H     1.0000    0     1.008   33.013516   20.087789   22.525536
  96 H     1.0000    0     1.008   31.161584   17.782323   23.224734
  97 O     8.0000    0    15.999   19.917713   22.412152   31.426146
  98 H     1.0000    0     1.008   18.708289   23.130248   30.178926
  99 H     1.0000    0     1.008   19.804330   23.394810   32.881235
 100 Q     0.6645    0     0.000   18.273652   11.791891   33.013516
 101 Q     0.6645    0     0.000   20.182275   12.018658   35.092214
 102 Q    -1.3290    0     0.000   19.180720   11.243870   34.147351
 103 Q     0.6645    0     0.000   21.127138   27.457721   12.169836
 104 Q     0.6645    0     0.000   19.615357   27.986844    9.656501
 105 Q    -1.3290    0     0.000   20.786987   28.232508   10.752542
 106 Q     0.6645    0     0.000   29.404139   26.267193    7.558905
 107 Q     0.6645    0     0.000   30.859228   23.905036    6.632939
 108 Q    -1.3290    0     0.000   30.273413   25.397919    6.519555
 109 Q     0.6645    0     0.000   20.314556   30.367899   40.591317
 110 Q     0.6645    0     0.000   22.109796   28.043536   39.684249
 111 Q    -1.3290    0     0.000   21.675159   29.441933   40.421242
 112 Q     0.6645    0     0.000   33.410358   11.772994   15.363473
 113 Q     0.6645    0     0.000   32.824543    9.221864   16.837460
 114 Q    -1.3290    0     0.000   33.599331   10.601364   16.459515
 115 Q     0.6645    0     0.000   31.161584    5.234541   16.024878
 116 Q     0.6645    0     0.000   33.580433    5.253439   17.574453
 117 Q    -1.3290    0     0.000   32.692262    4.932185   16.327234
 118 Q     0.6645    0     0.000   16.799665    1.473986   25.605789
 119 Q     0.6645    0     0.000   19.313001    1.228322   27.193159
 120 Q    -1.3290    0     0.000   17.839015    0.736993   26.550652
 121 Q     0.6645    0     0.000   27.382132   26.002632   34.279632
 122 Q     0.6645    0     0.000   29.574214   24.453056   33.788303
 123 Q    -1.3290    0     0.000   28.100228   24.660926   34.128454
 124 Q     0.6645    0     0.000   23.394810   12.339912   29.234063
 125 Q     0.6645    0     0.000   25.416817   13.039110   27.117570
 126 Q    -1.3290    0     0.000   24.736515   13.020213   28.610454
 127 Q     0.6645    0     0.000   13.870590   29.649803   18.311446
 128 Q     0.6645    0     0.000   14.059562   30.972611   15.798110
 129 Q    -1.3290    0     0.000   13.700514   30.859228   17.309891
 130 Q     0.6645    0     0.000   34.317427   21.561775   14.418610
 131 Q     0.6645    0     0.000   35.678029   19.218515   13.152494
 132 Q    -1.3290    0     0.000   35.111112   20.106686   14.380816
 133 Q     0.6645    0     0.000   23.470399   14.210741   37.832317
 134 Q     0.6645    0     0.000   22.582227   15.628035   35.602440
 135 Q    -1.3290    0     0.000   22.752303   14.380816   36.452817
 136 Q     0.6645    0     0.000   37.511064   18.613802   25.851454
 137 Q     0.6645    0     0.000   39.060639   20.900371   25.605789
 138 Q    -1.3290    0     0.000   37.700036   20.144481   25.775864
 139 Q     0.6645    0     0.000   39.703146    9.089583   14.588686
 140 Q     0.6645    0     0.000   37.000838    9.958857   14.059562
 141 Q    -1.3290    0     0.000   38.588208   10.110035   14.059562
 142 Q     0.6645    0     0.000   16.157158   15.306782   30.802536
 143 Q     0.6645    0     0.000   18.916159   15.476857   31.615118
 144 Q    -1.3290    0     0.000   17.687837   14.909939   30.764741
 145 Q     0.6645    0     0.000   14.928836   23.111351   -0.548021
 146 Q     0.6645    0     0.000   17.272097   21.335008   -0.377945
 147 Q    -1.3290    0     0.000   15.873700   21.977515    0.094486
 148 Q     0.6645    0     0.000    8.881713   34.449707   18.746083
 149 Q     0.6645    0     0.000   11.716302   34.336324   18.708289
 150 Q    -1.3290    0     0.000   10.336802   34.959933   19.124028
 151 Q     0.6645    0     0.000   16.516206   34.770961   36.244947
 152 Q     0.6645    0     0.000   13.719412   35.413468   35.243392
 153 Q    -1.3290    0     0.000   15.401268   35.337879   35.148906
 154 Q     0.6645    0     0.000   27.571104   31.312762   25.605789
 155 Q     0.6645    0     0.000   29.215166   33.637125   26.210501
 156 Q    -1.3290    0     0.000   28.515967   32.238728   26.512858
 157 Q     0.6645    0     0.000   29.082885   33.183591   37.208708
 158 Q     0.6645    0     0.000   28.119125   34.298529   34.619783
 159 Q    -1.3290    0     0.000   28.515967   34.374118   36.244947
 160 Q     0.6645    0     0.000    8.579357   27.495515   13.398158
 161 Q     0.6645    0     0.000    7.180959   29.612009   11.829686
 162 Q    -1.3290    0     0.000    8.409281   28.950604   12.736754
 163 Q     0.6645    0     0.000   24.131803    0.736993   15.080015
 164 Q     0.6645    0     0.000   22.204282    2.418849   13.606028
 165 Q    -1.3290    0     0.000   22.846789    1.738548   14.909939
 166 Q     0.6645    0     0.000   18.235857   33.901687   10.828131
 167 Q     0.6645    0     0.000   20.201172   32.049755   11.376151
 168 Q    -1.3290    0     0.000   19.690946   33.485947   10.998206
 169 Q     0.6645    0     0.000   10.639158   14.399713    4.478651
 170 Q     0.6645    0     0.000    9.637603   11.716302    3.798350
 171 Q    -1.3290    0     0.000   10.336802   12.812343    4.743213
 172 Q     0.6645    0     0.000   23.753858   28.043536    8.617151
 173 Q     0.6645    0     0.000   25.152255   28.100228    6.217199
 174 Q    -1.3290    0     0.000   24.982179   27.665591    7.710083
 175 Q     0.6645    0     0.000   12.302117    4.157397   13.983973
 176 Q     0.6645    0     0.000   11.905275    6.141610   15.949289
 177 Q    -1.3290    0     0.000   12.396603    4.762110   15.439063
 178 Q     0.6645    0     0.000    5.045569   27.098673   17.290994
 179 Q     0.6645    0     0.000    4.384165   29.914365   17.272097
 180 Q    -1.3290    0     0.000    4.081808   28.364789   17.479967
 181 Q     0.6645    0     0.000    0.151178   29.196269   33.202488
 182 Q     0.6645    0     0.000    2.966870   29.045091   31.993063
 183 Q    -1.3290    0     0.000    1.757445   28.856118   33.089105
 184 Q     0.6645    0     0.000   14.248535   18.311446    0.755890
 185 Q     0.6645    0     0.000   14.645378   16.194953    2.796795
 186 Q    -1.3290    0     0.000   13.832795   16.988638    1.587370
 187 Q     0.6645    0     0.000   15.325679   36.018180    8.371487
 188 Q     0.6645    0     0.000   15.250090   36.528406   11.319460
 189 Q    -1.3290    0     0.000   15.098912   35.659132    9.939959
 190 Q     0.6645    0     0.000   10.752542   20.049994    3.401507
 191 Q     0.6645    0     0.000    8.881713   18.916159    1.417295
 192 Q    -1.3290    0     0.000    9.316350   19.709844    2.815692
 193 Q     0.6645    0     0.000   20.579118   25.190049    5.007774
 194 Q     0.6645    0     0.000   21.013755   22.336563    4.516445
 195 Q    -1.3290    0     0.000   21.221624   23.905036    4.327473
 196 Q     0.6645    0     0.000   25.567995    7.634494   31.293865
 197 Q     0.6645    0     0.000   26.853008   10.015549   29.952159
 198 Q    -1.3290    0     0.000   26.569549    8.447076   30.292310
 199 Q     0.6645    0     0.000   30.689152   21.883029   13.020213
 200 Q     0.6645    0     0.000   29.234063   19.766535   11.640713
 201 Q    -1.3290    0     0.000   29.819878   21.259419   11.829686
 202 Q     0.6645    0     0.000   27.949050    7.180959    6.557350
 203 Q     0.6645    0     0.000   25.681378    8.503768    5.121158
 204 Q    -1.3290    0     0.000   26.607344    7.237651    5.688076
 205 Q     0.6645    0     0.000   18.330343   37.170913   17.706734
 206 Q     0.6645    0     0.000   15.968186   38.361441   18.368138
 207 Q    -1.3290    0     0.000   16.988638   37.246502   18.500419
 208 Q     0.6645    0     0.000   10.582466   11.659610   36.963043
 209 Q     0.6645    0     0.000   12.472192   12.698960   38.682694
 210 Q    -1.3290    0     0.000   11.092692   12.150939   38.323646
[...]
 338   Q   :    0.140822759    0.200508416   -0.075431622
 339   Q   :   -0.179219981   -0.004830233    0.190657663
 340   Q   :    0.036822399   -0.198953290   -0.109961756
 341   Q   :   -0.233477200   -0.098719849    0.065956801
 342   Q   :    0.164265462   -0.081006636   -0.177450278
 343   Q   :    0.059458386    0.173620683    0.106946375
 344   Q   :   -0.189597810    0.175212953   -0.057933467
 345   Q   :    0.269888272    0.045645588   -0.091868960
 346   Q   :   -0.084221214   -0.225056366    0.145715996
 347   Q   :    0.016765829    0.110384838    0.250299470
 348   Q   :    0.017346167    0.136700243   -0.252021235
 349   Q   :   -0.033801077   -0.243470716   -0.000162899
 350   Q   :   -0.195618114   -0.003602860    0.206805259
 351   Q   :   -0.046086137   -0.161051385   -0.246718138
 352   Q   :    0.236247440    0.159927370    0.031670223
 353   Q   :   -0.103419958   -0.143038461   -0.201515505
 354   Q   :    0.175768679    0.145982083   -0.014596347
 355   Q   :   -0.072293705    0.003451520    0.213147259
 356   Q   :    0.212341078    0.196279841   -0.033672838
 357   Q   :    0.020756075   -0.267284330    0.095715389
 358   Q   :   -0.228471125    0.070467583   -0.050793715
 359   Q   :    0.239377055    0.022240483    0.130542846
 360   Q   :   -0.155746836    0.182439768   -0.124394453
 361   Q   :   -0.082633041   -0.196707778   -0.011233162
 362   Q   :   -0.095147730   -0.091326308   -0.209443443
 363   Q   :    0.028816221   -0.106079302    0.229741038
 364   Q   :    0.056583336    0.205774353   -0.007113206
 365   Q   :   -0.037851824   -0.284487105    0.079837503
 366   Q   :    0.228142338    0.134865788   -0.064123250
 367   Q   :   -0.184349380    0.149323890   -0.014068759
 368   Q   :   -0.168667792    0.192543719    0.025441725
 369   Q   :   -0.019980351   -0.270212787    0.098264721
 370   Q   :    0.189354891    0.069856488   -0.126660791
 371   Q   :   -0.032477652   -0.014341336   -0.267993891
 372   Q   :    0.204596124   -0.004203507    0.137026914
 373   Q   :   -0.174687279    0.019739409    0.115022451
 374   Q   :    0.043605050   -0.026610220    0.281318500
 375   Q   :   -0.202817206    0.185114502   -0.104536796
 376   Q   :    0.149274432   -0.146117501   -0.190303251
 377   Q   :    0.020112722   -0.288209814   -0.011836011
 378   Q   :   -0.136106348    0.174864093   -0.191996147
 379   Q   :    0.112396871    0.111064144    0.194518479
 380   Q   :    0.169181842   -0.057699002   -0.261361086
 381   Q   :   -0.031479603    0.271066899    0.054627608
 382   Q   :   -0.145651892   -0.212544487    0.209259927
 383   Q   :   -0.043845137    0.131348744   -0.236285400
 384   Q   :    0.136074665    0.126333977    0.249950282
 385   Q   :   -0.088628328   -0.258095108   -0.007882221
 386   Q   :   -0.151272940   -0.222968955   -0.079879440
 387   Q   :    0.089754210    0.208760813   -0.162229390
 388   Q   :    0.067267780    0.004244675    0.240967608
 389   Q   :    0.185152085    0.093184471   -0.165307362
 390   Q   :    0.041024176   -0.196605346    0.177421407
 391   Q   :   -0.213731895    0.101517414   -0.009111716
 392   Q   :   -0.065276489    0.196682677   -0.184840985
 393   Q   :    0.182406283   -0.207064748   -0.037009378
 394   Q   :   -0.121794847    0.008536345    0.226322674
 395   Q   :    0.013283996   -0.196410715    0.259223984
 396   Q   :   -0.125185220   -0.120789356   -0.252945637
 397   Q   :    0.113508655    0.313443063   -0.001079676
 398   Q   :   -0.066901380    0.128806898    0.244406515
 399   Q   :    0.027491400   -0.292541102   -0.013926193
 400   Q   :    0.045536704    0.157207608   -0.218026037
 401   Q   :    0.123177509   -0.138077353    0.222731014
 402   Q   :   -0.091637619   -0.089066399   -0.231964431
 403   Q   :   -0.027729497    0.237858089    0.013572404
 404   Q   :    0.089168363   -0.220546126   -0.117561149
 405   Q   :    0.004206945    0.249185694   -0.084923864
 406   Q   :   -0.089933816   -0.018646953    0.210738281
 407   Q   :   -0.144315344    0.139522980    0.161228466
 408   Q   :   -0.050290190   -0.106669677   -0.244544579
 409   Q   :    0.200973817   -0.033516194    0.077998843
 410   Q   :   -0.077419582   -0.048861258    0.265676564
 411   Q   :   -0.153809626   -0.058460004   -0.242572272
 412   Q   :    0.223757743    0.097902731   -0.023214351
 413   Q   :    0.117673544    0.143817187    0.184119295
 414   Q   :    0.097387993   -0.134981591   -0.194621193
 415   Q   :   -0.217177393   -0.012100352    0.014863621
 416   Q   :   -0.089005265    0.124255092   -0.169727582
 417   Q   :   -0.138933310   -0.163685274    0.203452149
 418   Q   :    0.227121608    0.039635074   -0.028193020
 419   Q   :    0.263756875    0.170877095    0.017991335
 420   Q   :   -0.108513060   -0.082890942   -0.284808968
 421   Q   :   -0.151521192   -0.091991333    0.259491814
 422   Q   :    0.193648748    0.116919113   -0.176241932
 423   Q   :   -0.052386365    0.090570124    0.260239867
 424   Q   :   -0.137995541   -0.205082712   -0.083802337
 425   Q   :   -0.045614563    0.276658852   -0.079772873
 426   Q   :    0.204388539   -0.163129863   -0.144966624
 427   Q   :   -0.157430825   -0.101550836    0.222862859
 428   Q   :   -0.211270146   -0.133503603   -0.001906405
 429   Q   :    0.199851066   -0.010382429    0.229260846
 430   Q   :    0.010831607    0.146681381   -0.225026311
 431   Q   :   -0.106799895    0.240872724   -0.082902214
 432   Q   :   -0.133864137   -0.273857435   -0.007389194
 433   Q   :    0.245036765    0.028006364    0.095821027
 434   Q   :    0.156632285   -0.021280583    0.222863018
 435   Q   :    0.070863790    0.073252422   -0.249178969
 436   Q   :   -0.222471767   -0.046697444    0.020033917
 437   Q   :    0.287543627   -0.000810066    0.000151828
 438   Q   :   -0.165797710    0.148798201   -0.133614132
 439   Q   :   -0.104548441   -0.151069766    0.123209974
 440   Q   :    0.086597013   -0.131241878    0.187717133
 441   Q   :    0.108357138    0.159691183   -0.129191028
 442   Q   :   -0.194633969   -0.029219439   -0.052419387
 443   Q   :    0.275235484   -0.081842468   -0.093238767
 444   Q   :   -0.157963275    0.171696104   -0.146030818
 445   Q   :   -0.124909759   -0.085739612    0.243837470
 446   Q   :   -0.062261415    0.276790327   -0.078074996
 447   Q   :   -0.099461498   -0.222695949   -0.152642475
 448   Q   :    0.157551946   -0.058174786    0.227811371
 449   Q   :   -0.124899649    0.245786763    0.085141514
 450   Q   :    0.225226302   -0.018628325   -0.181706093
 451   Q   :   -0.102460025   -0.241414993    0.101748775
 452   Q   :    0.193217591    0.023627709    0.171561701
 453   Q   :   -0.215048407   -0.096886515    0.027601631
 454   Q   :    0.024025704    0.081627793   -0.199218442
 455   Q   :    0.204459225    0.161894868   -0.115146146
 456   Q   :   -0.280637610    0.123631111    0.082764704
 457   Q   :    0.076839394   -0.292074962    0.037787386
 458   Q   :    0.112351980   -0.248108918   -0.057313763
 459   Q   :   -0.172160608    0.171352897   -0.155132137
 460   Q   :    0.053173291    0.083030478    0.202401954
 461   Q   :   -0.181746648    0.196687865   -0.078833493
 462   Q   :   -0.033026023   -0.193088544    0.163488843
 463   Q   :    0.207869596   -0.000776341   -0.079643666
 464   Q   :   -0.029096763   -0.194258559   -0.228858208
 465   Q   :    0.079310820   -0.121051671    0.290394673
 466   Q   :   -0.060618733    0.309498483   -0.061119221
 467   Q   :   -0.057205935   -0.202072699    0.195409706
 468   Q   :   -0.138152584    0.193864524   -0.087746288
 469   Q   :    0.209470742    0.008132580   -0.105746210
 470   Q   :    0.014282961    0.096473457    0.260998190
 471   Q   :   -0.203656277    0.042700896   -0.165325205
 472   Q   :    0.177882028   -0.130158762   -0.095691643
 473   Q   :   -0.197894511   -0.003584532   -0.226787091
 474   Q   :    0.071389618    0.202716447    0.161446214
 475   Q   :    0.122326207   -0.206547534    0.056472283
 476   Q   :   -0.099931852    0.233404218   -0.033892564
 477   Q   :    0.047180607   -0.205827520   -0.151089263
 478   Q   :    0.057367359   -0.030537744    0.199755005
 479   Q   :    0.112182742    0.192287384   -0.085318326
 480   Q   :   -0.289663772   -0.039095984    0.063399663
 481   Q   :    0.187683147   -0.149803010    0.019551533
 482   Q   :   -0.135796048    0.237999758    0.082811690
 483   Q   :    0.123854464   -0.035381208   -0.209220279
 484   Q   :    0.005646552   -0.199118312    0.125253747
 485   Q   :    0.187398825    0.065237099   -0.219110937
 486   Q   :   -0.216290890    0.136763753    0.066013522
 487   Q   :    0.029411301   -0.194524954    0.146056149
 488   Q   :   -0.170131016    0.188191411    0.132911599
 489   Q   :   -0.085941620   -0.168460192   -0.255235650
 490   Q   :    0.251148330   -0.015518022    0.116899008
 491   Q   :   -0.204447409   -0.083144992    0.114563348
 492   Q   :    0.103195470    0.226698077   -0.005717909
 493   Q   :    0.117593129   -0.129814249   -0.106909279
 494   Q   :    0.000385004    0.205814931   -0.210203971
 495   Q   :   -0.131861028    0.042372454    0.270317273
 496   Q   :    0.151580685   -0.245213370   -0.048013713
 497   Q   :   -0.165446009   -0.058950259   -0.205207484
 498   Q   :   -0.035372398   -0.036960174    0.266335152
 499   Q   :    0.192727532    0.101131162   -0.061356755
 500   Q   :   -0.231169661    0.018518939    0.063183382
 501   Q   :    0.201183670    0.156430346    0.052002975
 502   Q   :    0.036671050   -0.169374883   -0.131611164
 503   Q   :   -0.049211905    0.283142355   -0.065047989
 504   Q   :   -0.114066346   -0.225920457   -0.182492118
 505   Q   :    0.160108730   -0.054612321    0.250877316
 506   Q   :   -0.084588723    0.282736087    0.078830188
 507   Q   :    0.255777502   -0.074336021    0.016348060
 508   Q   :   -0.171822222   -0.204823969   -0.097032823
 509   Q   :    0.104215350   -0.166557528    0.178784201
 510   Q   :   -0.238342517   -0.046697598   -0.131676958
 511   Q   :    0.142046678    0.214323166   -0.045923875
 512   Q   :    0.014775586   -0.226849774    0.150444464
 513   Q   :   -0.072424743    0.257017147    0.073352970
 514   Q   :    0.053142035   -0.029708117   -0.221361645
 515   Q   :   -0.118776028   -0.255260593   -0.015669590
 516   Q   :    0.113900890    0.128653257   -0.227960593
 517   Q   :    0.001519367    0.132579935    0.245491579
 518   Q   :   -0.272635501    0.034029818   -0.044708346
 519   Q   :    0.117776585   -0.083042167    0.236121429
 520   Q   :    0.148075367    0.043857795   -0.181199375
 521   Q   :    0.114541458    0.020003130   -0.224503834
 522   Q   :    0.001641071   -0.222044987    0.155101057
 523   Q   :   -0.112708951    0.210895172    0.079442201
 524   Q   :   -0.006092072   -0.066618994   -0.273483710
 525   Q   :    0.234511407    0.027709224    0.122000823
 526   Q   :   -0.234345805    0.030871648    0.137821098
 527   Q   :    0.171957155   -0.077134346    0.125648754
 528   Q   :   -0.039183525    0.091314418   -0.226381437
 529   Q   :   -0.120826490   -0.005625448    0.111640134
 530   Q   :   -0.041648509    0.225542110    0.249370759
 531   Q   :   -0.211451599   -0.000280039   -0.218356994
 532   Q   :    0.245488040   -0.217377683   -0.024491408
 533   Q   :    0.231250732   -0.017171995   -0.182994156
 534   Q   :   -0.127932862   -0.197282424    0.090328909
 535   Q   :   -0.097391230    0.224019364    0.089039063
 536   Q   :    0.125745016    0.062414414   -0.215965456
 537   Q   :   -0.233798364   -0.161240077    0.035472220
 538   Q   :    0.098762096    0.104628120    0.174821894
 539   Q   :   -0.132657960    0.222524518   -0.114774021
 540   Q   :    0.291869036   -0.060971100   -0.058513701
 541   Q   :   -0.153644680   -0.167271245    0.172527795
 542   Q   :   -0.232725733    0.203187049   -0.107362429
 543   Q   :    0.132119296   -0.184185703   -0.200518637
 544   Q   :    0.101363959   -0.019917158    0.305650679
 545   Q   :    0.113941703    0.272490119   -0.058586849
 546   Q   :   -0.274163271   -0.081208568   -0.041093093
 547   Q   :    0.162582094   -0.191114370    0.090901837
 548   Q   :   -0.190894051   -0.176902531    0.126531835
 549   Q   :   -0.009376932    0.028167920   -0.317204884
 550   Q   :    0.202617009    0.157753886    0.185754553
 551   Q   :    0.242431070    0.038260045    0.125295216
 552   Q   :   -0.207170200    0.180360665    0.005930174
 553   Q   :   -0.029541608   -0.227348984   -0.125378294
 554   Q   :    0.270103735    0.022203105    0.004676835
 555   Q   :   -0.145668429   -0.221837930   -0.099362572
 556   Q   :   -0.124605717    0.197736898    0.092561293
 557   Q   :    0.145945125   -0.193504934    0.086711568
 558   Q   :   -0.002007539    0.092647673   -0.266217033
 559   Q   :   -0.154831787    0.099777038    0.172586631
 560   Q   :   -0.187411595    0.112099070    0.163832302
 561   Q   :    0.019549784   -0.247647232   -0.082272671
 562   Q   :    0.166000477    0.141627807   -0.082122892
 563   Q   :   -0.199416937   -0.201282630    0.082490776
 564   Q   :   -0.012122951    0.182012035   -0.188617929
 565   Q   :    0.214421110    0.020780175    0.119670924
 566   Q   :   -0.113183013   -0.180083714   -0.131265366
 567   Q   :   -0.122807133    0.209867385    0.136206480
 568   Q   :    0.239269915   -0.024191686   -0.003073709
 569   Q   :   -0.187138588    0.215306904   -0.028349146
 570   Q   :    0.147636712   -0.100316508   -0.201446308
 571   Q   :    0.046019700   -0.111723476    0.231314460
 572   Q   :   -0.077336431   -0.171078533   -0.181725275
 573   Q   :   -0.161605341    0.136616903    0.155538073
 574   Q   :    0.229761009    0.040503919    0.039651127
 575   Q   :   -0.071569526   -0.229073491   -0.059719179
 576   Q   :   -0.189807004    0.187330861    0.170033940
 577   Q   :    0.262295001    0.039821240   -0.119725237
 578   Q   :    0.223468929    0.075869000   -0.139742291
 579   Q   :   -0.083724199   -0.257495058    0.068646791
 580   Q   :   -0.146313530    0.183022248    0.074187377
 581   Q   :    0.193842679    0.129469846    0.069974422
 582   Q   :   -0.171887859   -0.146413973    0.179135667
 583   Q   :   -0.038128274    0.018107139   -0.244467713
 584   Q   :   -0.132075741   -0.271960840    0.024130119
 585   Q   :   -0.078764639    0.197438814   -0.184050951
 586   Q   :    0.220203352    0.068370239    0.158836722
 587   Q   :   -0.110572883    0.140183728   -0.229443865
 588   Q   :   -0.107119184   -0.032223919    0.251239407
 589   Q   :    0.211074594   -0.105414454   -0.027691690
 590   Q   :    0.082876557    0.261921559   -0.029594108
 591   Q   :   -0.197662371   -0.092589450   -0.113503051
 592   Q   :    0.123115216   -0.161145385    0.147310293
 593   Q   :   -0.034569513    0.028846031   -0.253803076
 594   Q   :    0.098959725    0.161143579    0.197275657
 595   Q   :   -0.070521220   -0.193893025    0.046845587
 596   Q   :    0.090382503   -0.160451987    0.233458577
 597   Q   :   -0.252449021    0.168637075   -0.024696517
 598   Q   :    0.171238039   -0.010397049   -0.208991688
 599   Q   :   -0.087677692   -0.098530313   -0.237002981
 600   Q   :   -0.099556215   -0.026449404    0.235757444
 601   Q   :    0.174548572    0.121995464   -0.005278305
 602   Q   :    0.015878051   -0.097512998   -0.269998255
 603   Q   :   -0.190996311   -0.098920213    0.204254736
 604   Q   :    0.180215601    0.198076232    0.064683451
 605   Q   :   -0.264043598   -0.112467670    0.054978962
 606   Q   :    0.191872047    0.009425304    0.167279146
 607   Q   :    0.066476415    0.100240886   -0.218604730
 608   Q   :    0.133686738   -0.048313533   -0.240938318
 609   Q   :   -0.000361055    0.218300803    0.139858498
 610   Q   :   -0.125183966   -0.171854610    0.092822013
 611   Q   :   -0.050622594   -0.096449168   -0.231937943
 612   Q   :    0.083913043    0.258971837    0.062398280
 613   Q   :   -0.026304628   -0.164519600    0.176282571
 614   Q   :    0.186112025   -0.140061374    0.203709443
 615   Q   :    0.040839476   -0.063359246   -0.283421331
 616   Q   :   -0.224766858    0.198117110    0.085096866
 617   Q   :   -0.269644372   -0.056058520   -0.068525034
 618   Q   :    0.207537591   -0.019054929   -0.133035140
 619   Q   :    0.066115285    0.074517183    0.201175344
 620   Q   :   -0.183649274    0.116317970    0.147252298
 621   Q   :    0.111136283    0.071583803   -0.238799886
 622   Q   :    0.088135450   -0.189063097    0.090688307
 623   Q   :   -0.037495209   -0.258217208   -0.091574553
 624   Q   :    0.219045480    0.104477683    0.092634182
 625   Q   :   -0.177190270    0.156802872   -0.017437572
 626   Q   :    0.101826248    0.029277996   -0.243097982
 627   Q   :   -0.086727604   -0.227504192    0.118426770
 628   Q   :   -0.020009060    0.191847606    0.122473667

Difference to translation invariance:
           :    0.0003864926   -0.0005207302    0.0005254024

Difference to rotation invariance:
           :    0.0175482609    0.0039523814   -0.0180331418

Norm of the cartesian gradient     ...    6.2564094903
RMS gradient                       ...    0.1441400661
MAX gradient                       ...    0.3172048842

-------
TIMINGS
-------

Total SCF gradient time            ...      166.102 sec

One electron gradient       ....      21.520 sec  ( 13.0%)
RI-J Coulomb gradient       ....       8.754 sec  (  5.3%)
COSX gradient               ....     102.841 sec  ( 61.9%)
XC gradient                 ....      13.079 sec  (  7.9%)

Maximum memory used throughout the entire SCFGRAD-calculation: 711.2 MB

                            ***************************************
                            *     ORCA property calculations      *
                            ***************************************

                                    ---------------------
                                    Active property flags
                                    ---------------------
   (+) Dipole Moment


------------------------------------------------------------------------------
                       ORCA ELECTRIC PROPERTIES CALCULATION
------------------------------------------------------------------------------

Dipole Moment Calculation                       ... on
Quadrupole Moment Calculation                   ... off
Polarizability Calculation                      ... off
GBWName                                         ... final015.orca.gbw
Electron density                                ... final015.orca.scfp
The origin for moment calculation is the CENTER OF MASS  = (21.396031, 21.766654 21.792472)

-------------
DIPOLE MOMENT
-------------
                                X             Y             Z
Electronic contribution:     -0.00872      -2.48064       1.14816
Nuclear contribution   :     -9.03023       8.63847     -18.51274
                        -----------------------------------------
Total Dipole Moment    :     -9.03895       6.15783     -17.36458
                        -----------------------------------------
Magnitude (a.u.)       :     20.52194
Magnitude (Debye)      :     52.16263



--------------------
Rotational spectrum 
--------------------
 
Rotational constants in cm-1:     0.002412     0.001416     0.001240 
Rotational constants in MHz :    72.314490    42.449108    37.175653 

 Dipole components along the rotational axes: 
x,y,z [a.u.] :    -2.602921   -18.409040    -8.688044 
x,y,z [Debye]:    -6.616100   -46.792062   -22.083252 

 

Timings for individual modules:

Sum of individual times         ...      748.024 sec (=  12.467 min)
GTO integral calculation        ...       11.761 sec (=   0.196 min)   1.6 %
SCF iterations                  ...      566.245 sec (=   9.437 min)  75.7 %
SCF Gradient evaluation         ...      170.018 sec (=   2.834 min)  22.7 %
                             ****ORCA TERMINATED NORMALLY****
TOTAL RUN TIME: 0 days 0 hours 12 minutes 35 seconds 506 msec
