
                                 *****************
                                 * O   R   C   A *
                                 *****************

                                            #,                                       
                                            ###                                      
                                            ####                                     
                                            #####                                    
                                            ######                                   
                                           ########,                                 
                                     ,,################,,,,,                         
                               ,,#################################,,                 
                          ,,##########################################,,             
                       ,#########################################, ''#####,          
                    ,#############################################,,   '####,        
                  ,##################################################,,,,####,       
                ,###########''''           ''''###############################       
              ,#####''   ,,,,##########,,,,          '''####'''          '####       
            ,##' ,,,,###########################,,,                        '##       
           ' ,,###''''                  '''############,,,                           
         ,,##''                                '''############,,,,        ,,,,,,###''
      ,#''                                            '''#######################'''  
     '                                                          ''''####''''         
             ,#######,   #######,   ,#######,      ##                                
            ,#'     '#,  ##    ##  ,#'     '#,    #''#        ######   ,####,        
            ##       ##  ##   ,#'  ##            #'  '#       #        #'  '#        
            ##       ##  #######   ##           ,######,      #####,   #    #        
            '#,     ,#'  ##    ##  '#,     ,#' ,#      #,         ##   #,  ,#        
             '#######'   ##     ##  '#######'  #'      '#     #####' # '####'        



                  #######################################################
                  #                        -***-                        #
                  #          Department of theory and spectroscopy      #
                  #    Directorship and core code : Frank Neese         #
                  #        Max Planck Institute fuer Kohlenforschung    #
                  #                Kaiser Wilhelm Platz 1               #
                  #                 D-45470 Muelheim/Ruhr               #
                  #                      Germany                        #
                  #                                                     #
                  #                  All rights reserved                #
                  #                        -***-                        #
                  #######################################################


                         Program Version 5.0.3 -  RELEASE  -


 With contributions from (in alphabetic order):
   Daniel Aravena         : Magnetic Suceptibility
   Michael Atanasov       : Ab Initio Ligand Field Theory (pilot matlab implementation)
   Alexander A. Auer      : GIAO ZORA, VPT2 properties, NMR spectrum
   Ute Becker             : Parallelization
   Giovanni Bistoni       : ED, misc. LED, open-shell LED, HFLD
   Martin Brehm           : Molecular dynamics
   Dmytro Bykov           : SCF Hessian
   Vijay G. Chilkuri      : MRCI spin determinant printing, contributions to CSF-ICE
   Dipayan Datta          : RHF DLPNO-CCSD density
   Achintya Kumar Dutta   : EOM-CC, STEOM-CC
   Dmitry Ganyushin       : Spin-Orbit,Spin-Spin,Magnetic field MRCI
   Miquel Garcia          : C-PCM and meta-GGA Hessian, CC/C-PCM, Gaussian charge scheme
   Yang Guo               : DLPNO-NEVPT2, F12-NEVPT2, CIM, IAO-localization
   Andreas Hansen         : Spin unrestricted coupled pair/coupled cluster methods
   Benjamin Helmich-Paris : MC-RPA, TRAH-SCF, COSX integrals
   Lee Huntington         : MR-EOM, pCC
   Robert Izsak           : Overlap fitted RIJCOSX, COSX-SCS-MP3, EOM
   Marcus Kettner         : VPT2
   Christian Kollmar      : KDIIS, OOCD, Brueckner-CCSD(T), CCSD density, CASPT2, CASPT2-K
   Simone Kossmann        : Meta GGA functionals, TD-DFT gradient, OOMP2, MP2 Hessian
   Martin Krupicka        : Initial AUTO-CI
   Lucas Lang             : DCDCAS
   Marvin Lechner         : AUTO-CI (C++ implementation), FIC-MRCC
   Dagmar Lenk            : GEPOL surface, SMD
   Dimitrios Liakos       : Extrapolation schemes; Compound Job, initial MDCI parallelization
   Dimitrios Manganas     : Further ROCIS development; embedding schemes
   Dimitrios Pantazis     : SARC Basis sets
   Anastasios Papadopoulos: AUTO-CI, single reference methods and gradients
   Taras Petrenko         : DFT Hessian,TD-DFT gradient, ASA, ECA, R-Raman, ABS, FL, XAS/XES, NRVS
   Peter Pinski           : DLPNO-MP2, DLPNO-MP2 Gradient
   Christoph Reimann      : Effective Core Potentials
   Marius Retegan         : Local ZFS, SOC
   Christoph Riplinger    : Optimizer, TS searches, QM/MM, DLPNO-CCSD(T), (RO)-DLPNO pert. Triples
   Tobias Risthaus        : Range-separated hybrids, TD-DFT gradient, RPA, STAB
   Michael Roemelt        : Original ROCIS implementation
   Masaaki Saitow         : Open-shell DLPNO-CCSD energy and density
   Barbara Sandhoefer     : DKH picture change effects
   Avijit Sen             : IP-ROCIS
   Kantharuban Sivalingam : CASSCF convergence, NEVPT2, FIC-MRCI
   Bernardo de Souza      : ESD, SOC TD-DFT
   Georgi Stoychev        : AutoAux, RI-MP2 NMR, DLPNO-MP2 response
   Willem Van den Heuvel  : Paramagnetic NMR
   Boris Wezisla          : Elementary symmetry handling
   Frank Wennmohs         : Technical directorship


 We gratefully acknowledge several colleagues who have allowed us to
 interface, adapt or use parts of their codes:
   Stefan Grimme, W. Hujo, H. Kruse, P. Pracht,  : VdW corrections, initial TS optimization,
                  C. Bannwarth, S. Ehlert          DFT functionals, gCP, sTDA/sTD-DF
   Ed Valeev, F. Pavosevic, A. Kumar             : LibInt (2-el integral package), F12 methods
   Garnet Chan, S. Sharma, J. Yang, R. Olivares  : DMRG
   Ulf Ekstrom                                   : XCFun DFT Library
   Mihaly Kallay                                 : mrcc  (arbitrary order and MRCC methods)
   Jiri Pittner, Ondrej Demel                    : Mk-CCSD
   Frank Weinhold                                : gennbo (NPA and NBO analysis)
   Christopher J. Cramer and Donald G. Truhlar   : smd solvation model
   Lars Goerigk                                  : TD-DFT with DH, B97 family of functionals
   V. Asgeirsson, H. Jonsson                     : NEB implementation
   FAccTs GmbH                                   : IRC, NEB, NEB-TS, DLPNO-Multilevel, CI-OPT
                                                   MM, QMMM, 2- and 3-layer-ONIOM, Crystal-QMMM,
                                                   LR-CPCM, SF, NACMEs, symmetry and pop. for TD-DFT,
                                                   nearIR, NL-DFT gradient (VV10), updates on ESD,
                                                   ML-optimized integration grids
   S Lehtola, MJT Oliveira, MAL Marques          : LibXC Library
   Liviu Ungur et al                             : ANISO software


 Your calculation uses the libint2 library for the computation of 2-el integrals
 For citations please refer to: http://libint.valeyev.net

 Your ORCA version has been built with support for libXC version: 5.1.0
 For citations please refer to: https://tddft.org/programs/libxc/

 This ORCA versions uses:
   CBLAS   interface :  Fast vector & matrix operations
   LAPACKE interface :  Fast linear algebra routines
   SCALAPACK package :  Parallel linear algebra routines
   Shared memory     :  Shared parallel matrices
   BLAS/LAPACK       :  OpenBLAS 0.3.15  USE64BITINT DYNAMIC_ARCH NO_AFFINITY SkylakeX SINGLE_THREADED
        Core in use  :  SkylakeX
   Copyright (c) 2011-2014, The OpenBLAS Project


================================================================================

----- Orbital basis set information -----
Your calculation utilizes the basis: def2-SVP
   F. Weigend and R. Ahlrichs, Phys. Chem. Chem. Phys. 7, 3297 (2005).

The basis set includes element-specific modifications.

Your calculation utilizes the basis: aug-cc-pVTZ 
    H, B-Ne : Obtained from the ccRepo (grant-hill.group.shef.ac.uk/ccrepo) Feb. 2017
              R. A. Kendall, T. H. Dunning, Jr., R. J. Harrison, J. Chem. Phys. 96, 6796 (1992)
         He : Obtained from the ccRepo (grant-hill.group.shef.ac.uk/ccrepo) Feb. 2017
              D. E. Woon, T. H. Dunning, Jr., J. Chem. Phys. 100, 2975 (1994)
  Li-Be, Na : Obtained from the ccRepo (grant-hill.group.shef.ac.uk/ccrepo) Feb. 2017
              B. P. Prascher, D. E. Woon, K. A. Peterson, T. H. Dunning, Jr., A. K. Wilson, Theor. Chem. Acc. 128, 69 (2011)
         Mg : Obtained from the Peterson Research Group Website (tyr0.chem.wsu.edu/~kipeters) Feb. 2017
              B. P. Prascher, D. E. Woon, K. A. Peterson, T. H. Dunning, Jr., A. K. Wilson, Theor. Chem. Acc. 128, 69 (2011)
      Al-Ar : Obtained from the ccRepo (grant-hill.group.shef.ac.uk/ccrepo) Feb. 2017
              D. E. Woon, T. H. Dunning, Jr., J. Chem. Phys. 98, 1358 (1993)
      Sc-Zn : Obtained from the ccRepo (grant-hill.group.shef.ac.uk/ccrepo) Feb. 2017
              N. B. Balabanov, K. A. Peterson, J. Chem. Phys. 123, 064107 (2005)
              N. B. Balabanov, K. A. Peterson, J. Chem. Phys. 125, 074110 (2006)
      Ga-Kr : Obtained from the ccRepo (grant-hill.group.shef.ac.uk/ccrepo) Feb. 2017
              A. K. Wilson, D. E. Woon, K. A. Peterson, T. H. Dunning, Jr., J. Chem. Phys. 110, 7667 (1999)
     Ag, Au : Obtained from the Peterson Research Group Website (tyr0.chem.wsu.edu/~kipeters) Feb. 2017
              K. A. Peterson, C. Puzzarini, Theor. Chem. Acc. 114, 283 (2005)

Your calculation utilizes the basis: cc-pVTZ 
       H, B-Ne : Obtained from the ccRepo (grant-hill.group.shef.ac.uk/ccrepo) Feb. 2017
                 T. H. Dunning, Jr., J. Chem. Phys. 90, 1007 (1989)
            He : Obtained from the ccRepo (grant-hill.group.shef.ac.uk/ccrepo) Feb. 2017
                 D. E. Woon, T. H. Dunning, Jr., J. Chem. Phys. 100, 2975 (1994)
  Li-Be, Na-Mg : Obtained from the ccRepo (grant-hill.group.shef.ac.uk/ccrepo) Feb. 2017
                 B. P. Prascher, D. E. Woon, K. A. Peterson, T. H. Dunning, Jr., A. K. Wilson, Theor. Chem. Acc. 128, 69 (2011)
         Al-Ar : Obtained from the ccRepo (grant-hill.group.shef.ac.uk/ccrepo) Feb. 2017
                 D. E. Woon, T. H. Dunning, Jr., J. Chem. Phys. 98, 1358 (1993)
            Ca : Obtained from the Peterson Research Group Website (tyr0.chem.wsu.edu/~kipeters) Feb. 2017
                 J. Koput, K. A. Peterson, J. Phys. Chem. 106, 9595 (2002)
         Sc-Zn : Obtained from the ccRepo (grant-hill.group.shef.ac.uk/ccrepo) Feb. 2017
                 N. B. Balabanov, K. A. Peterson, J. Chem. Phys. 123, 064107 (2005)
                 N. B. Balabanov, K. A. Peterson, J. Chem. Phys. 125, 074110 (2006)
         Ga-Kr : Obtained from the ccRepo (grant-hill.group.shef.ac.uk/ccrepo) Feb. 2017
                 A. K. Wilson, D. E. Woon, K. A. Peterson, T. H. Dunning, Jr., J. Chem. Phys. 110, 7667 (1999)
             Y : Obtained from the ccRepo (grant-hill.group.shef.ac.uk/ccrepo) Feb. 2017
                 K. A. Peterson, D. Figgen, M. Dolg, H. Stoll, J. Chem. Phys. 126, 124101 (2007)
        Ag, Au : Obtained from the Peterson Research Group Website (tyr0.chem.wsu.edu/~kipeters) Feb. 2017
                 K. A. Peterson, C. Puzzarini, Theor. Chem. Acc. 114, 283 (2005)

----- AuxJ basis set information -----
Your calculation utilizes the auxiliary basis: def2/J
   F. Weigend, Phys. Chem. Chem. Phys. 8, 1057 (2006).

================================================================================
                                        WARNINGS
                       Please study these warnings very carefully!
================================================================================

WARNING: The globally-selected AuxJ basis set is optimized for use with ECPs
         Make sure a suitable alternative is explicitly given all heavy elements (Z>36)

INFO   : the flag for use of the SHARK integral package has been found!

================================================================================
                                       INPUT FILE
================================================================================
NAME = final097.orca.inp
|  1> ! NoMOPrint PrintBasis #MINIPRINT SMALLPRINT LARGEPRINT
|  2> ! ALLPOP XYZFILE
|  3> #! BP86 3-21G   TightSCF
|  4> ! ENGRAD
|  5> ! B3LYP NormalPNO PModel #DecontractAux
|  6> #! VerySlowConv 
|  7>  %maxcore 5000
|  8>  %scf  maxiter   500  end 
|  9> 
| 10> %pal
| 11>     nprocs 32
| 12> end
| 13> 
| 14> %basis
| 15>     NewGTO O    # New basis for oxygen
| 16>         "aug-cc-pVTZ"
| 17>     end
| 18>     NewGTO C    # New basis for carbon
| 19>         "aug-cc-pVTZ"
| 20>     end
| 21>     NewGTO H    # New basis for hydrogen
| 22>         "cc-pVTZ"
| 23>     end
| 24> end
| 25> 
| 26> * xyz 0   1
| 27>   C  9.82  8.97  10.98  #1
| 28>   H  10.32  8.66  10.09  #2
| 29>   H  8.93  8.4  11.03  #3
| 30>   C  9.58  10.47  10.79  #4
| 31>   H  8.93  10.68  9.99  #5
| 32>   H  9.1  10.82  11.72  #6
| 33>   C  10.96  11.17  10.61  #7
| 34>   H  11.34  10.84  9.62  #8
| 35>   H  11.69  10.88  11.36  #9
| 36>   C  10.96  12.71  10.55  #10
| 37>   H  10.32  12.97  11.37  #11
| 38>   H  10.56  13.1  9.6  #12
| 39>   O  12.22  13.35  10.79  #13
| 40>   H  12.81  13.09  10.1  #14
| 41>   O  10.66  8.7  12.15  #15
| 42>   H  11.58  8.54  11.97  #16
| 43>   O  13.45  12.87  8.4  #17
| 44>   H  12.65  12.96  7.93  #18
| 45>   H  14.04  13.51  7.98  #19
| 46>   O  7.39  10.9  13.87  #20
| 47>   H  7.09  10.1  13.34  #21
| 48>   H  8.36  10.9  13.77  #22
| 49>   O  9.23  6.59  13.5  #23
| 50>   H  8.53  6.2  12.92  #24
| 51>   H  9.88  7.02  12.89  #25
| 52>   O  7.57  5.52  11.67  #26
| 53>   H  7.36  6.15  10.93  #27
| 54>   H  7.24  4.71  11.27  #28
| 55>   O  15.02  10.74  9.75  #29
| 56>   H  14.82  11.38  9.06  #30
| 57>   H  15.39  9.95  9.36  #31
| 58>   O  7.05  8.26  12.8  #32
| 59>   H  6.5  7.58  12.52  #33
| 60>   H  7.72  7.91  13.31  #34
| 61>   O  12.77  15.84  10.04  #35
| 62>   H  12.51  14.97  10.33  #36
| 63>   H  13.73  15.79  9.98  #37
| 64>   O  10.43  15.73  8.65  #38
| 65>   H  9.82  15.31  9.26  #39
| 66>   H  11.31  15.8  9.03  #40
| 67>   O  9.17  10.82  7.57  #41
| 68>   H  9.63  11.69  7.58  #42
| 69>   H  9.01  10.51  6.65  #43
| 70>   O  6.95  9.52  9.05  #44
| 71>   H  7.58  10.21  8.81  #45
| 72>   H  6.29  9.91  9.64  #46
| 73>   O  6.93  9.77  16.43  #47
| 74>   H  7.27  8.88  16.49  #48
| 75>   H  7.09  9.98  15.48  #49
| 76>   O  6.28  12.82  12.25  #50
| 77>   H  5.44  13.07  12.65  #51
| 78>   H  6.72  12.3  12.98  #52
| 79>   O  6.1  6.72  9.16  #53
| 80>   H  5.15  6.7  9.17  #54
| 81>   H  6.37  7.63  9.28  #55
| 82>   O  10.49  4.48  10.97  #56
| 83>   H  10.97  5.06  11.59  #57
| 84>   H  9.74  5.1  10.79  #58
| 85>   O  10.47  8.4  8.15  #59
| 86>   H  10.03  9.28  8.14  #60
| 87>   H  9.79  7.66  8.36  #61
| 88>   O  6.31  3.39  10.48  #62
| 89>   H  6.05  2.56  10.91  #63
| 90>   H  5.45  3.76  10.24  #64
| 91>   O  10.78  4.48  14.96  #65
| 92>   H  10.34  3.66  15.16  #66
| 93>   H  10.07  5.04  14.53  #67
| 94>   O  8.78  6.31  8.83  #68
| 95>   H  7.83  6.52  8.84  #69
| 96>   H  8.77  5.4  8.68  #70
| 97>   O  13.98  8.31  13.05  #71
| 98>   H  14.36  9.26  12.94  #72
| 99>   H  14.81  7.95  13.41  #73
|100>   O  16.64  12.1  7.24  #74
|101>   H  17.03  11.76  6.41  #75
|102>   H  16.19  12.89  6.93  #76
|103>   O  6.95  3.07  13.6  #77
|104>   H  7.62  3.05  12.93  #78
|105>   H  7.32  3.62  14.26  #79
|106>   O  10.12  11.13  14.04  #80
|107>   H  10.71  11.91  14.07  #81
|108>   H  10.66  10.47  13.64  #82
|109>   O  14.62  10.94  12.58  #83
|110>   H  14.66  11.05  11.63  #84
|111>   H  13.91  11.61  12.76  #85
|112>   O  10.58  13.26  7.01  #86
|113>   H  10.59  14.14  7.27  #87
|114>   H  10.68  13.32  6.09  #88
|115>   O  12.82  7.04  8.99  #89
|116>   H  12.01  7.55  8.82  #90
|117>   H  12.57  6.16  8.7  #91
|118>   O  16.64  9.33  7.97  #92
|119>   H  16  9.04  7.28  #93
|120>   H  16.5  10.27  7.94  #94
|121>   O  12.46  6.46  11.82  #95
|122>   H  12.54  6.69  10.88  #96
|123>   H  12.96  7.14  12.3  #97
|124>   O  15.13  14.76  7.03  #98
|125>   H  14.79  14.72  6.09  #99
|126>   H  14.9  15.6  7.42  #100
|127>   O  16.9  13.05  9.91  #101
|128>   H  17.07  12.94  8.97  #102
|129>   H  16.72  12.15  10.3  #103
|130>   Q  0.6645  10.09$  7.27$  6.39$
|131>   Q  0.6645  9.18$  7.71$  5.14$
|132>   Q  -1.3290  9.67$  7.17$  5.65$
|133>   Q  0.6645  14.77$  10.52$  4.46$
|134>   Q  0.6645  13.34$  10.58$  4.25$
|135>   Q  -1.3290  14.03$  10.72$  4.7$
|136>   Q  0.6645  14.24$  19.82$  4.66$
|137>   Q  0.6645  13.36$  18.89$  5.48$
|138>   Q  -1.3290  14.05$  19.09$  5.07$
|139>   Q  0.6645  18.42$  17.96$  5.12$
|140>   Q  0.6645  18.93$  17.17$  3.93$
|141>   Q  -1.3290  18.53$  17.83$  4.28$
|142>   Q  0.6645  3.88$  5.51$  10.22$
|143>   Q  0.6645  3.19$  4.69$  9.04$
|144>   Q  -1.3290  3.79$  4.91$  9.63$
|145>   Q  0.6645  10.63$  4.48$  17.05$
|146>   Q  0.6645  11.86$  4.24$  17.95$
|147>   Q  -1.3290  11.12$  4.58$  17.74$
|148>   Q  0.6645  19.81$  8.21$  10.48$
|149>   Q  0.6645  20.3$  8.97$  11.82$
|150>   Q  -1.3290  20.27$  8.35$  11.21$
|151>   Q  0.6645  14.23$  4.06$  14.63$
|152>   Q  0.6645  13.25$  3.47$  13.63$
|153>   Q  -1.3290  13.8$  3.43$  14.28$
|154>   Q  0.6645  6.34$  4.56$  5.18$
|155>   Q  0.6645  5.68$  5.91$  4.83$
|156>   Q  -1.3290  5.79$  5.07$  4.77$
|157>   Q  0.6645  7.94$  13.36$  16.39$
|158>   Q  0.6645  7.44$  11.79$  16.56$
|159>   Q  -1.3290  7.59$  12.63$  16.75$
|160>   Q  0.6645  7.69$  19.37$  11.91$
|161>   Q  0.6645  7.86$  18.45$  10.66$
|162>   Q  -1.3290  7.51$  18.71$  11.4$
|163>   Q  0.6645  6.12$  9.22$  7.3$
|164>   Q  0.6645  5.16$  10.23$  6.43$
|165>   Q  -1.3290  5.45$  9.45$  6.78$
|166>   Q  0.6645  15.64$  3.23$  16.68$
|167>   Q  0.6645  16.5$  3.3$  15.36$
|168>   Q  -1.3290  16.3$  3.49$  16.16$
|169>   Q  0.6645  3.59$  8.79$  2.38$
|170>   Q  0.6645  3.17$  9.75$  3.4$
|171>   Q  -1.3290  3.46$  9.54$  2.69$
|172>   Q  0.6645  14.03$  -0.37$  7.6$
|173>   Q  0.6645  15.41$  0.4$  7.29$
|174>   Q  -1.3290  14.56$  0.25$  7.22$
|175>   Q  0.6645  4.44$  5.97$  17.57$
|176>   Q  0.6645  3.84$  6.5$  18.91$
|177>   Q  -1.3290  4.39$  6.48$  18.27$
|178>   Q  0.6645  17.99$  9.36$  10.79$
|179>   Q  0.6645  18.26$  9.97$  9.31$
|180>   Q  -1.3290  18.27$  9.94$  10.17$
|181>   Q  0.6645  15.57$  16.89$  14.49$
|182>   Q  0.6645  16.6$  17.6$  13.68$
|183>   Q  -1.3290  16.09$  17.51$  14.32$
|184>   Q  0.6645  14.95$  15.28$  11.28$
|185>   Q  0.6645  16.02$  14.62$  10.4$
|186>   Q  -1.3290  15.53$  15.25$  10.67$
|187>   Q  0.6645  13.05$  7.82$  18.48$
|188>   Q  0.6645  13.17$  7.06$  17.23$
|189>   Q  -1.3290  13.34$  7.19$  18.02$
|190>   Q  0.6645  16.33$  11.2$  13.78$
|191>   Q  0.6645  17.66$  11.29$  14.61$
|192>   Q  -1.3290  16.92$  10.96$  14.33$
|193>   Q  0.6645  7.59$  17.2$  6.43$
|194>   Q  0.6645  8.81$  17.19$  5.31$
|195>   Q  -1.3290  8.13$  17.51$  5.78$
|196>   Q  0.6645  8.57$  14.31$  1.32$
|197>   Q  0.6645  8.26$  14.3$  -0.07$
|198>   Q  -1.3290  8.79$  14.23$  0.54$
|199>   Q  0.6645  5.78$  16.3$  15.33$
|200>   Q  0.6645  5.36$  14.9$  14.7$
|201>   Q  -1.3290  5.44$  15.5$  15.33$
|202>   Q  0.6645  19.69$  18.26$  10.42$
|203>   Q  0.6645  19.87$  18.65$  11.88$
|204>   Q  -1.3290  19.71$  18.1$  11.24$
|205>   Q  0.6645  5.93$  12.15$  2.03$
|206>   Q  0.6645  5.21$  10.83$  2.17$
|207>   Q  -1.3290  5.79$  11.4$  2.41$
|208>   Q  0.6645  13.71$  16.82$  12.67$
|209>   Q  0.6645  13.62$  15.39$  12.95$
|210>   Q  -1.3290  14.05$  16.09$  12.8$
|211>   Q  0.6645  7.39$  9.06$  4.93$
|212>   Q  0.6645  8.61$  9.96$  4.34$
|213>   Q  -1.3290  8.19$  9.4$  4.89$
|214>   Q  0.6645  14.4$  6.8$  5$
|215>   Q  0.6645  13.75$  5.92$  3.82$
|216>   Q  -1.3290  14.31$  6.49$  4.21$
|217>   Q  0.6645  5.4$  18.29$  3.8$
|218>   Q  0.6645  6.71$  18.39$  4.68$
|219>   Q  -1.3290  5.84$  18.45$  4.48$
|220>   Q  0.6645  19.03$  5.52$  9.51$
|221>   Q  0.6645  20.53$  5.04$  9.42$
|222>   Q  -1.3290  19.67$  4.95$  9.37$
|223>   Q  0.6645  16.79$  0.19$  11.45$
|224>   Q  0.6645  15.39$  0.53$  11.64$
|225>   Q  -1.3290  15.97$  0.12$  11.28$
|226>   Q  0.6645  3.21$  14.73$  4.45$
|227>   Q  0.6645  3.81$  15.57$  5.59$
|228>   Q  -1.3290  3.2$  15.29$  5.1$
|229>   Q  0.6645  14.27$  3.6$  6.22$
|230>   Q  0.6645  15.17$  4.35$  7.03$
|231>   Q  -1.3290  14.94$  4.06$  6.31$
|232>   Q  0.6645  10.98$  12.15$  1.08$
|233>   Q  0.6645  10$  10.98$  0.61$
|234>   Q  -1.3290  10.47$  11.48$  1.15$
|235>   Q  0.6645  14.67$  18.13$  6.72$
|236>   Q  0.6645  14.92$  18.5$  8.16$
|237>   Q  -1.3290  15.01$  18.04$  7.48$
|238>   Q  0.6645  4.54$  19.25$  7.28$
|239>   Q  0.6645  5.41$  18.8$  6.26$
|240>   Q  -1.3290  5.17$  18.81$  7.04$
|241>   Q  0.6645  11.71$  13.96$  18.38$
|242>   Q  0.6645  12.99$  13.09$  18.36$
|243>   Q  -1.3290  12.33$  13.49$  18.01$
|244>   Q  0.6645  17.19$  18.64$  15.22$
|245>   Q  0.6645  18.6$  18.48$  15.53$
|246>   Q  -1.3290  17.94$  18.94$  15.38$
|247>   Q  0.6645  0.79$  3.91$  9.87$
|248>   Q  0.6645  1.06$  5.36$  10.42$
|249>   Q  -1.3290  0.87$  4.76$  9.85$
|250>   Q  0.6645  18.31$  12.9$  11.69$
|251>   Q  0.6645  18.86$  11.52$  11.21$
|252>   Q  -1.3290  18.82$  12.25$  11.71$
|253>   Q  0.6645  5.5$  7.86$  3.52$
|254>   Q  0.6645  5.3$  8.3$  5.01$
|255>   Q  -1.3290  5.54$  7.81$  4.36$
|256>   Q  0.6645  4.24$  10.36$  18.81$
|257>   Q  0.6645  4.88$  11.61$  19.41$
|258>   Q  -1.3290  4.46$  10.88$  19.43$
|259>   Q  0.6645  3.75$  8.67$  7.56$
|260>   Q  0.6645  2.62$  7.57$  7.56$
|261>   Q  -1.3290  3.15$  8.21$  7.91$
|262>   Q  0.6645  2.76$  9.05$  15.7$
|263>   Q  0.6645  2$  7.97$  14.93$
|264>   Q  -1.3290  2.34$  8.73$  15.09$
|265>   Q  0.6645  14.79$  13.62$  3.81$
|266>   Q  0.6645  14.25$  12.72$  4.98$
|267>   Q  -1.3290  14.43$  13.47$  4.56$
|268>   Q  0.6645  17.87$  17.62$  11.55$
|269>   Q  0.6645  16.6$  16.93$  11.52$
|270>   Q  -1.3290  17.05$  17.6$  11.68$
|271>   Q  0.6645  7.17$  15.7$  2.55$
|272>   Q  0.6645  6.9$  14.65$  3.65$
|273>   Q  -1.3290  7.18$  14.92$  2.88$
|274>   Q  0.6645  6.74$  21.51$  7.75$
|275>   Q  0.6645  7.84$  20.53$  7.92$
|276>   Q  -1.3290  7.17$  20.97$  8.18$
|277>   Q  0.6645  9.21$  1.78$  11.72$
|278>   Q  0.6645  10$  3.07$  11.8$
|279>   Q  -1.3290  9.7$  2.36$  12.08$
|280>   Q  0.6645  8.65$  20.18$  4.48$
|281>   Q  0.6645  8.52$  20.4$  2.99$
|282>   Q  -1.3290  8.36$  20.04$  3.71$
|283>   Q  0.6645  13.4$  13.92$  14.88$
|284>   Q  0.6645  14.8$  13.63$  14.03$
|285>   Q  -1.3290  13.94$  13.48$  14.33$
|286>   Q  0.6645  7.16$  21.12$  13.89$
|287>   Q  0.6645  8.08$  19.93$  14.45$
|288>   Q  -1.3290  7.53$  20.34$  13.91$
|289>   Q  0.6645  6.49$  15.15$  8.26$
|290>   Q  0.6645  5.8$  16.33$  7.67$
|291>   Q  -1.3290  6.37$  15.72$  7.67$
|292>   Q  0.6645  12.18$  20.14$  3.4$
|293>   Q  0.6645  10.82$  20.6$  4.04$
|294>   Q  -1.3290  11.45$  20.05$  3.82$
|295>   Q  0.6645  9.37$  5.02$  19.54$
|296>   Q  0.6645  7.93$  4.63$  19.94$
|297>   Q  -1.3290  8.74$  4.8$  20.08$
|298>   Q  0.6645  10.07$  10.47$  15.99$
|299>   Q  0.6645  10.05$  10.51$  17.59$
|300>   Q  -1.3290  10.23$  10.19$  16.79$
|301>   Q  0.6645  11.47$  13.43$  16.13$
|302>   Q  0.6645  10.39$  14.37$  15.53$
|303>   Q  -1.3290  11.02$  13.79$  15.52$
|304>   Q  0.6645  2.83$  9.31$  13.4$
|305>   Q  0.6645  2.27$  9.74$  12.04$
|306>   Q  -1.3290  2.87$  9.45$  12.56$
|307>   Q  0.6645  0.45$  8.66$  9.96$
|308>   Q  0.6645  1.91$  8.99$  9.34$
|309>   Q  -1.3290  1.26$  9.02$  9.95$
|310>   Q  0.6645  11.28$  14.74$  13.65$
|311>   Q  0.6645  11.17$  16.27$  13.43$
|312>   Q  -1.3290  11.11$  15.45$  13.21$
|313>   Q  0.6645  11.57$  18.2$  12.95$
|314>   Q  0.6645  11.19$  18.48$  14.44$
|315>   Q  -1.3290  11.65$  18.21$  13.81$
|316>   Q  0.6645  16.73$  10.41$  3.19$
|317>   Q  0.6645  16.45$  9.15$  4.04$
|318>   Q  -1.3290  16.23$  9.81$  3.54$
|319>   Q  0.6645  9.39$  17.56$  8.76$
|320>   Q  0.6645  10.04$  18.47$  9.87$
|321>   Q  -1.3290  9.4$  18.19$  9.37$
|322>   Q  0.6645  18.87$  13.86$  9.69$
|323>   Q  0.6645  19.91$  13.25$  8.83$
|324>   Q  -1.3290  19.51$  13.9$  9.16$
|325>   Q  0.6645  4.61$  3.74$  16.69$
|326>   Q  0.6645  4.02$  4.41$  15.43$
|327>   Q  -1.3290  4.08$  4.24$  16.26$
|328>   Q  0.6645  12.39$  10.6$  16.42$
|329>   Q  0.6645  13.7$  11.36$  15.77$
|330>   Q  -1.3290  13.22$  10.77$  16.19$
|331>   Q  0.6645  9.06$  21.17$  11.4$
|332>   Q  0.6645  8.19$  21.37$  10.16$
|333>   Q  -1.3290  8.46$  21.57$  10.95$
|334>   Q  0.6645  5.3$  4.21$  13.65$
|335>   Q  0.6645  3.8$  4.12$  13.36$
|336>   Q  -1.3290  4.5$  4.51$  13.58$
|337>   Q  0.6645  16.04$  15.3$  3.55$
|338>   Q  0.6645  16.64$  16.72$  3.86$
|339>   Q  -1.3290  16$  16.12$  3.75$
|340>   Q  0.6645  19.06$  8.31$  16.32$
|341>   Q  0.6645  19.38$  8.04$  14.94$
|342>   Q  -1.3290  18.96$  7.95$  15.64$
|343>   Q  0.6645  11.52$  20.73$  12.49$
|344>   Q  0.6645  10.97$  22.12$  12.45$
|345>   Q  -1.3290  10.96$  21.31$  12.64$
|346>   Q  0.6645  15.71$  16.03$  18.86$
|347>   Q  0.6645  15.25$  14.61$  18.99$
|348>   Q  -1.3290  15.17$  15.4$  18.78$
|349>   Q  0.6645  4.52$  10.36$  11.69$
|350>   Q  0.6645  5.47$  11.55$  11.61$
|351>   Q  -1.3290  5.07$  10.87$  11.29$
|352>   Q  0.6645  11.47$  1.86$  16.28$
|353>   Q  0.6645  12.8$  2.38$  17.04$
|354>   Q  -1.3290  12.06$  1.92$  16.88$
|355>   Q  0.6645  12.47$  19.4$  8.17$
|356>   Q  0.6645  12.26$  20.73$  9.01$
|357>   Q  -1.3290  12.69$  20.12$  8.59$
|358>   Q  0.6645  0.45$  7.29$  11.58$
|359>   Q  0.6645  1.85$  6.86$  11.64$
|360>   Q  -1.3290  1.05$  6.79$  11.81$
|361>   Q  0.6645  11.15$  7.83$  3.24$
|362>   Q  0.6645  10.52$  6.82$  4.07$
|363>   Q  -1.3290  10.89$  7.08$  3.39$
|364>   Q  0.6645  11.95$  8.92$  20.41$
|365>   Q  0.6645  13.16$  9.85$  20.81$
|366>   Q  -1.3290  12.76$  9.22$  20.4$
|367>   Q  0.6645  1.86$  9.34$  5.61$
|368>   Q  0.6645  1.26$  10.36$  4.81$
|369>   Q  -1.3290  1.88$  10.02$  5.2$
|370>   Q  0.6645  14.7$  19.2$  14.78$
|371>   Q  0.6645  13.27$  19.33$  14.96$
|372>   Q  -1.3290  14.03$  19.64$  14.88$
|373>   Q  0.6645  12.85$  15.98$  16.15$
|374>   Q  0.6645  13.98$  15.06$  16.67$
|375>   Q  -1.3290  13.63$  15.65$  16.15$
|376>   Q  0.6645  18.4$  10.39$  4.84$
|377>   Q  0.6645  18.49$  9.72$  6.24$
|378>   Q  -1.3290  18.34$  9.76$  5.39$
|379>   Q  0.6645  9.32$  15.4$  12.93$
|380>   Q  0.6645  8.24$  16.46$  12.62$
|381>   Q  -1.3290  8.56$  15.77$  13.01$
|382>   Q  0.6645  14.15$  3.96$  18.73$
|383>   Q  0.6645  13.97$  4.79$  17.49$
|384>   Q  -1.3290  13.89$  4.1$  17.96$
|385>   Q  0.6645  16.17$  6.77$  3.6$
|386>   Q  0.6645  17.47$  6.88$  2.74$
|387>   Q  -1.3290  17.01$  6.82$  3.46$
|388>   Q  0.6645  5.99$  18.92$  14.4$
|389>   Q  0.6645  5.23$  18.9$  15.73$
|390>   Q  -1.3290  5.62$  18.55$  15.06$
|391>   Q  0.6645  15.25$  12.31$  19.39$
|392>   Q  0.6645  14.06$  12.26$  20.41$
|393>   Q  -1.3290  14.53$  12.57$  19.76$
|394>   Q  0.6645  17.77$  1.71$  14.43$
|395>   Q  0.6645  16.26$  1.27$  14.51$
|396>   Q  -1.3290  16.94$  1.67$  14.2$
|397>   Q  0.6645  10.29$  15.21$  19.67$
|398>   Q  0.6645  9.89$  14.05$  20.5$
|399>   Q  -1.3290  10.38$  14.44$  19.96$
|400>   Q  0.6645  2.53$  11.69$  13.25$
|401>   Q  0.6645  3.1$  13.09$  13.44$
|402>   Q  -1.3290  2.89$  12.34$  13.68$
|403>   Q  0.6645  15.89$  20.28$  10.22$
|404>   Q  0.6645  16.26$  18.82$  10.27$
|405>   Q  -1.3290  15.94$  19.47$  9.9$
|406>   Q  0.6645  12.38$  16.52$  19.75$
|407>   Q  0.6645  13.23$  16.19$  18.47$
|408>   Q  -1.3290  12.55$  16.52$  18.93$
|409>   Q  0.6645  14.58$  3.95$  11.49$
|410>   Q  0.6645  13.22$  4.8$  11.51$
|411>   Q  -1.3290  13.72$  4.1$  11.61$
|412>   Q  0.6645  11.53$  19.05$  6.01$
|413>   Q  0.6645  11.96$  17.66$  6.36$
|414>   Q  -1.3290  11.78$  18.46$  6.53$
|415>   Q  0.6645  15.29$  7.32$  18.15$
|416>   Q  0.6645  16.24$  8.45$  18.04$
|417>   Q  -1.3290  16.01$  7.7$  18.25$
|418>   Q  0.6645  4.52$  8.19$  17.51$
|419>   Q  0.6645  4.87$  9.11$  16.47$
|420>   Q  -1.3290  4.36$  8.82$  17.03$
|421>   Q  0.6645  5.77$  3.89$  8.21$
|422>   Q  0.6645  6.07$  2.72$  7.19$
|423>   Q  -1.3290  6.03$  3.51$  7.47$
|424>   Q  0.6645  19.3$  11.94$  13.85$
|425>   Q  0.6645  20.28$  10.96$  14.31$
|426>   Q  -1.3290  19.65$  11.52$  14.44$
|427>   Q  0.6645  14.77$  1.73$  9.25$
|428>   Q  0.6645  13.99$  2.64$  10.27$
|429>   Q  -1.3290  14.07$  2.04$  9.65$
|430>   Q  0.6645  4.11$  6.11$  12.2$
|431>   Q  0.6645  3.61$  7.57$  11.94$
|432>   Q  -1.3290  3.95$  6.82$  11.72$
|433>   Q  0.6645  9.99$  19.9$  7.37$
|434>   Q  0.6645  8.95$  19.25$  6.5$
|435>   Q  -1.3290  9.36$  19.89$  6.84$
|436>   Q  0.6645  9.71$  18.21$  17.74$
|437>   Q  0.6645  10.89$  18.91$  18.4$
|438>   Q  -1.3290  10.06$  18.72$  18.28$
|439>   Q  0.6645  10.03$  1.75$  14.26$
|440>   Q  0.6645  9.42$  1.57$  15.68$
|441>   Q  -1.3290  10.02$  1.67$  15.09$
|442>   Q  0.6645  16.84$  11.66$  17.83$
|443>   Q  0.6645  16.84$  13.26$  17.65$
|444>   Q  -1.3290  17.02$  12.48$  18$
|445>   Q  0.6645  8.06$  15.6$  16.29$
|446>   Q  0.6645  8.28$  15.39$  14.78$
|447>   Q  -1.3290  8.45$  15.29$  15.61$
|448>   Q  0.6645  3.69$  11.19$  5.14$
|449>   Q  0.6645  4.89$  11.37$  4.28$
|450>   Q  -1.3290  4.48$  11.37$  5.03$
|451>   Q  0.6645  11.99$  13.42$  2.28$
|452>   Q  0.6645  12.96$  13.96$  1.21$
|453>   Q  -1.3290  12.53$  13.35$  1.67$
|454>   Q  0.6645  2.47$  11.53$  17.15$
|455>   Q  0.6645  2.65$  12.11$  15.7$
|456>   Q  -1.3290  2.3$  12.07$  16.49$
|457>   Q  0.6645  18.1$  15.69$  6.72$
|458>   Q  0.6645  18.94$  15.05$  7.77$
|459>   Q  -1.3290  18.65$  15.13$  6.98$
|460>   Q  0.6645  7.61$  17.14$  17.89$
|461>   Q  0.6645  6.84$  17.87$  16.73$
|462>   Q  -1.3290  7.5$  17.6$  17.16$
|463>   Q  0.6645  10.11$  13.46$  3.9$
|464>   Q  0.6645  10.77$  14.89$  3.95$
|465>   Q  -1.3290  10.76$  14.01$  4.07$
|466>   Q  0.6645  19.26$  5.21$  12.43$
|467>   Q  0.6645  19.62$  6.72$  12.46$
|468>   Q  -1.3290  19.45$  5.95$  12.78$
|469>   Q  0.6645  16.3$  2.57$  12.05$
|470>   Q  0.6645  16.73$  3.01$  10.62$
|471>   Q  -1.3290  16.3$  3.06$  11.35$
|472>   Q  0.6645  10.05$  16.59$  16.21$
|473>   Q  0.6645  11.07$  16.74$  17.35$
|474>   Q  -1.3290  10.79$  16.81$  16.56$
|475>   Q  0.6645  17.24$  7.42$  13.84$
|476>   Q  0.6645  17.07$  8.9$  13.53$
|477>   Q  -1.3290  17.21$  8.09$  13.35$
|478>   Q  0.6645  12.27$  0.89$  10.12$
|479>   Q  0.6645  10.72$  1.02$  9.85$
|480>   Q  -1.3290  11.49$  0.64$  10$
|481>   Q  0.6645  1.5$  3.12$  13.48$
|482>   Q  0.6645  2.46$  2.6$  14.56$
|483>   Q  -1.3290  2.24$  2.84$  13.79$
|484>   Q  0.6645  9.46$  16.93$  3.05$
|485>   Q  0.6645  10.52$  17.4$  4.05$
|486>   Q  -1.3290  9.94$  16.89$  3.74$
|487>   Q  0.6645  16.48$  14.58$  14.8$
|488>   Q  0.6645  16.66$  14.85$  13.3$
|489>   Q  -1.3290  16.48$  14.39$  13.97$
|490>   Q  0.6645  6.15$  13.04$  18.03$
|491>   Q  0.6645  4.71$  13.65$  18.37$
|492>   Q  -1.3290  5.47$  13.31$  18.52$
|493>   Q  0.6645  14.27$  7.98$  1.06$
|494>   Q  0.6645  13.52$  7.42$  2.41$
|495>   Q  -1.3290  13.61$  7.68$  1.57$
|496>   Q  0.6645  17.24$  6.85$  9.91$
|497>   Q  0.6645  17.93$  7.46$  8.74$
|498>   Q  -1.3290  17.87$  6.98$  9.41$
|499>   Q  0.6645  6.57$  0.61$  15.56$
|500>   Q  0.6645  6.44$  1.54$  14.31$
|501>   Q  -1.3290  6.19$  0.96$  14.88$
|502>   Q  0.6645  14.16$  1.31$  14.83$
|503>   Q  0.6645  14.49$  -0.24$  15.13$
|504>   Q  -1.3290  14.6$  0.63$  15.18$
|505>   Q  0.6645  10.81$  1.11$  7.33$
|506>   Q  0.6645  9.44$  0.46$  7.17$
|507>   Q  -1.3290  9.97$  1.04$  7.46$
|508>   Q  0.6645  20.32$  13.93$  11.92$
|509>   Q  0.6645  21.12$  14.28$  10.83$
|510>   Q  -1.3290  21.03$  14.12$  11.6$
|511>   Q  0.6645  4.6$  17.04$  10.4$
|512>   Q  0.6645  5.74$  17.65$  11.28$
|513>   Q  -1.3290  5.15$  17.05$  11.06$
|514>   Q  0.6645  1.33$  13.97$  8.39$
|515>   Q  0.6645  2.03$  13.55$  9.79$
|516>   Q  -1.3290  1.39$  13.91$  9.26$
|517>   Q  0.6645  20.41$  9.73$  8.19$
|518>   Q  0.6645  20.4$  8.29$  7.72$
|519>   Q  -1.3290  20.11$  8.96$  8.14$
|520>   Q  0.6645  3.19$  2.69$  7.47$
|521>   Q  0.6645  2.4$  1.95$  8.56$
|522>   Q  -1.3290  2.98$  2.05$  7.96$
|523>   Q  0.6645  17.36$  21.09$  6.9$
|524>   Q  0.6645  16.65$  20.46$  8.06$
|525>   Q  -1.3290  17.13$  21.05$  7.69$
|526>   Q  0.6645  10.33$  8.31$  17.08$
|527>   Q  0.6645  10.74$  6.83$  17.36$
|528>   Q  -1.3290  10.22$  7.49$  17.36$
|529>   Q  0.6645  11.87$  17.26$  10.69$
|530>   Q  0.6645  12.25$  18.7$  10.67$
|531>   Q  -1.3290  11.77$  18.07$  10.89$
|532>   Q  0.6645  6.53$  0.21$  11.59$
|533>   Q  0.6645  5.15$  0.11$  10.83$
|534>   Q  -1.3290  5.75$  0.47$  11.32$
|535>   Q  0.6645  8.49$  3.87$  4$
|536>   Q  0.6645  9.06$  4.41$  2.62$
|537>   Q  -1.3290  8.69$  3.81$  3.19$
|538>   Q  0.6645  10.73$  7.49$  20.76$
|539>   Q  0.6645  10.26$  7.91$  19.23$
|540>   Q  -1.3290  10.36$  7.99$  20.13$
|541>   Q  0.6645  5.62$  0.58$  6.03$
|542>   Q  0.6645  4.97$  1.25$  7.28$
|543>   Q  -1.3290  5.62$  1$  6.78$
|544>   Q  0.6645  17.77$  5.43$  13.55$
|545>   Q  0.6645  16.66$  4.78$  12.68$
|546>   Q  -1.3290  16.97$  5.19$  13.35$
|547>   Q  0.6645  16.41$  7.34$  11.53$
|548>   Q  0.6645  14.91$  7.38$  11.23$
|549>   Q  -1.3290  15.7$  7.21$  11.04$
|550>   Q  0.6645  14.53$  10.8$  0.41$
|551>   Q  0.6645  13.3$  11.6$  0.9$
|552>   Q  -1.3290  13.75$  11.11$  0.33$
|553>   Q  0.6645  7.24$  5.35$  15.99$
|554>   Q  0.6645  7.16$  4.15$  16.86$
|555>   Q  -1.3290  7.38$  4.56$  16.17$
|556>   Q  0.6645  21.02$  11.72$  7.52$
|557>   Q  0.6645  22.06$  11.95$  8.61$
|558>   Q  -1.3290  21.41$  11.56$  8.27$
|559>   Q  0.6645  11.62$  4.35$  7.14$
|560>   Q  0.6645  10.28$  4.32$  6.24$
|561>   Q  -1.3290  11.12$  4.41$  6.42$
|562>   Q  0.6645  7.09$  14.23$  10.88$
|563>   Q  0.6645  6.76$  15.65$  10.38$
|564>   Q  -1.3290  7.04$  14.86$  10.3$
|565>   Q  0.6645  12.67$  3.54$  9.01$
|566>   Q  0.6645  11.46$  4.42$  9.44$
|567>   Q  -1.3290  12.15$  4.21$  8.96$
|568>   Q  0.6645  17.5$  1.29$  8.94$
|569>   Q  0.6645  17.31$  2.61$  8.15$
|570>   Q  -1.3290  17.21$  2.06$  8.78$
|571>   Q  0.6645  4.36$  17.57$  8.18$
|572>   Q  0.6645  3.05$  17.04$  8.7$
|573>   Q  -1.3290  3.88$  17.15$  8.71$
|574>   Q  0.6645  9.07$  9.42$  20.75$
|575>   Q  0.6645  8.38$  10.82$  20.75$
|576>   Q  -1.3290  8.61$  10.1$  21.12$
|577>   Q  0.6645  7.87$  4.22$  6.93$
|578>   Q  0.6645  8.45$  5.6$  6.27$
|579>   Q  -1.3290  8.3$  4.73$  6.35$
|580>   Q  0.6645  5.73$  13.36$  4.94$
|581>   Q  0.6645  6.1$  14.65$  5.81$
|582>   Q  -1.3290  5.8$  14.19$  5.17$
|583>   Q  0.6645  4.5$  13.6$  9.5$
|584>   Q  0.6645  4.13$  12.14$  10.04$
|585>   Q  -1.3290  3.99$  12.9$  9.74$
|586>   Q  0.6645  4.14$  15.17$  16.74$
|587>   Q  0.6645  3$  14.09$  16.99$
|588>   Q  -1.3290  3.53$  14.73$  17.19$
|589>   Q  0.6645  10.55$  19.98$  16.01$
|590>   Q  0.6645  10.07$  20.61$  14.63$
|591>   Q  -1.3290  10.04$  20.09$  15.32$
|592>   Q  0.6645  3.94$  4.68$  5.39$
|593>   Q  0.6645  2.59$  3.93$  5.5$
|594>   Q  -1.3290  3.28$  4.35$  5.8$
|595>   Q  0.6645  9.97$  12.31$  19.3$
|596>   Q  0.6645  8.66$  12.08$  18.4$
|597>   Q  -1.3290  9.33$  11.87$  18.9$
|598>   Q  0.6645  6.88$  7$  17.99$
|599>   Q  0.6645  8.21$  7.26$  17.35$
|600>   Q  -1.3290  7.4$  7.11$  17.36$
|601>   Q  0.6645  14.26$  20.02$  12.32$
|602>   Q  0.6645  14.01$  19.89$  10.88$
|603>   Q  -1.3290  13.78$  19.94$  11.66$
|604>   Q  0.6645  17.98$  4.58$  16.29$
|605>   Q  0.6645  18.71$  5.86$  16.1$
|606>   Q  -1.3290  18.64$  5.06$  16.31$
|607>   Q  0.6645  17.71$  15.55$  16.58$
|608>   Q  0.6645  16.21$  16.05$  16.44$
|609>   Q  -1.3290  16.87$  15.49$  16.39$
|610>   Q  0.6645  17.7$  12.46$  3.22$
|611>   Q  0.6645  18.92$  11.65$  2.71$
|612>   Q  -1.3290  18.27$  11.81$  3.23$
|613>   Q  0.6645  12.99$  7.32$  14.82$
|614>   Q  0.6645  12.26$  5.95$  15.06$
|615>   Q  -1.3290  12.68$  6.65$  15.28$
|616>   Q  0.6645  11.95$  4.35$  4.59$
|617>   Q  0.6645  12.14$  4.94$  3.2$
|618>   Q  -1.3290  12.28$  4.42$  3.82$
|619>   Q  0.6645  0.68$  6.37$  6.77$
|620>   Q  0.6645  2.21$  5.75$  6.46$
|621>   Q  -1.3290  1.54$  6.34$  6.5$
|622>   Q  0.6645  1$  10.92$  10.71$
|623>   Q  0.6645  0.35$  12.1$  11.42$
|624>   Q  -1.3290  0.78$  11.41$  11.39$
|625>   Q  0.6645  13.04$  15.5$  5.2$
|626>   Q  0.6645  13.93$  16.68$  5.04$
|627>   Q  -1.3290  13.28$  16.26$  5.37$
|628>   Q  0.6645  5.28$  20.09$  9.09$
|629>   Q  0.6645  5.71$  19.46$  10.45$
|630>   Q  -1.3290  5.17$  19.84$  9.9$
|631>   Q  0.6645  16.43$  10.2$  16.43$
|632>   Q  0.6645  15.12$  10.15$  17.32$
|633>   Q  -1.3290  15.97$  10.23$  17.16$
|634>   Q  0.6645  4.74$  15.55$  12.26$
|635>   Q  0.6645  3.42$  15.17$  12.88$
|636>   Q  -1.3290  4.22$  15.01$  12.64$
|637>   Q  0.6645  13.82$  8.98$  6.4$
|638>   Q  0.6645  13.88$  7.86$  7.4$
|639>   Q  -1.3290  14.15$  8.28$  6.75$
|640>   Q  0.6645  18.57$  14.6$  13.62$
|641>   Q  0.6645  19.23$  15.87$  13.02$
|642>   Q  -1.3290  18.71$  15.18$  13.04$
|643>   Q  0.6645  11.66$  10.65$  2.57$
|644>   Q  0.6645  12.37$  9.38$  2.05$
|645>   Q  -1.3290  12.05$  9.88$  2.64$
|646>   Q  0.6645  9.13$  2.46$  8.43$
|647>   Q  0.6645  7.77$  2.97$  9.15$
|648>   Q  -1.3290  8.58$  3.01$  8.84$
|649>   Q  0.6645  16.89$  17.98$  7.23$
|650>   Q  0.6645  18.39$  18.03$  7.57$
|651>   Q  -1.3290  17.71$  17.9$  7.05$
|652>   Q  0.6645  9.08$  11.76$  2.74$
|653>   Q  0.6645  7.75$  11.53$  3.36$
|654>   Q  -1.3290  8.56$  11.7$  3.36$
|655>   Q  0.6645  19.87$  12.17$  5.35$
|656>   Q  0.6645  19.27$  13.06$  6.4$
|657>   Q  -1.3290  19.67$  12.37$  6.13$
|658> *
|659> 
|660>                          ****END OF INPUT****
================================================================================

                     *******************************
                     * Energy+Gradient Calculation *
                     *******************************

---------------------------------
CARTESIAN COORDINATES (ANGSTROEM)
---------------------------------
  C      9.820000    8.970000   10.980000
  H     10.320000    8.660000   10.090000
  H      8.930000    8.400000   11.030000
  C      9.580000   10.470000   10.790000
  H      8.930000   10.680000    9.990000
  H      9.100000   10.820000   11.720000
  C     10.960000   11.170000   10.610000
  H     11.340000   10.840000    9.620000
  H     11.690000   10.880000   11.360000
  C     10.960000   12.710000   10.550000
  H     10.320000   12.970000   11.370000
  H     10.560000   13.100000    9.600000
  O     12.220000   13.350000   10.790000
  H     12.810000   13.090000   10.100000
  O     10.660000    8.700000   12.150000
  H     11.580000    8.540000   11.970000
  O     13.450000   12.870000    8.400000
  H     12.650000   12.960000    7.930000
  H     14.040000   13.510000    7.980000
  O      7.390000   10.900000   13.870000
  H      7.090000   10.100000   13.340000
  H      8.360000   10.900000   13.770000
  O      9.230000    6.590000   13.500000
  H      8.530000    6.200000   12.920000
  H      9.880000    7.020000   12.890000
  O      7.570000    5.520000   11.670000
  H      7.360000    6.150000   10.930000
  H      7.240000    4.710000   11.270000
  O     15.020000   10.740000    9.750000
  H     14.820000   11.380000    9.060000
  H     15.390000    9.950000    9.360000
  O      7.050000    8.260000   12.800000
  H      6.500000    7.580000   12.520000
  H      7.720000    7.910000   13.310000
  O     12.770000   15.840000   10.040000
  H     12.510000   14.970000   10.330000
  H     13.730000   15.790000    9.980000
  O     10.430000   15.730000    8.650000
  H      9.820000   15.310000    9.260000
  H     11.310000   15.800000    9.030000
  O      9.170000   10.820000    7.570000
  H      9.630000   11.690000    7.580000
  H      9.010000   10.510000    6.650000
  O      6.950000    9.520000    9.050000
  H      7.580000   10.210000    8.810000
  H      6.290000    9.910000    9.640000
  O      6.930000    9.770000   16.430000
  H      7.270000    8.880000   16.490000
  H      7.090000    9.980000   15.480000
  O      6.280000   12.820000   12.250000
  H      5.440000   13.070000   12.650000
  H      6.720000   12.300000   12.980000
  O      6.100000    6.720000    9.160000
  H      5.150000    6.700000    9.170000
  H      6.370000    7.630000    9.280000
  O     10.490000    4.480000   10.970000
  H     10.970000    5.060000   11.590000
  H      9.740000    5.100000   10.790000
  O     10.470000    8.400000    8.150000
  H     10.030000    9.280000    8.140000
  H      9.790000    7.660000    8.360000
  O      6.310000    3.390000   10.480000
  H      6.050000    2.560000   10.910000
  H      5.450000    3.760000   10.240000
  O     10.780000    4.480000   14.960000
  H     10.340000    3.660000   15.160000
  H     10.070000    5.040000   14.530000
  O      8.780000    6.310000    8.830000
  H      7.830000    6.520000    8.840000
  H      8.770000    5.400000    8.680000
  O     13.980000    8.310000   13.050000
  H     14.360000    9.260000   12.940000
  H     14.810000    7.950000   13.410000
  O     16.640000   12.100000    7.240000
  H     17.030000   11.760000    6.410000
  H     16.190000   12.890000    6.930000
  O      6.950000    3.070000   13.600000
  H      7.620000    3.050000   12.930000
  H      7.320000    3.620000   14.260000
  O     10.120000   11.130000   14.040000
  H     10.710000   11.910000   14.070000
  H     10.660000   10.470000   13.640000
  O     14.620000   10.940000   12.580000
  H     14.660000   11.050000   11.630000
  H     13.910000   11.610000   12.760000
  O     10.580000   13.260000    7.010000
  H     10.590000   14.140000    7.270000
  H     10.680000   13.320000    6.090000
  O     12.820000    7.040000    8.990000
  H     12.010000    7.550000    8.820000
  H     12.570000    6.160000    8.700000
  O     16.640000    9.330000    7.970000
  H     16.000000    9.040000    7.280000
  H     16.500000   10.270000    7.940000
  O     12.460000    6.460000   11.820000
  H     12.540000    6.690000   10.880000
  H     12.960000    7.140000   12.300000
  O     15.130000   14.760000    7.030000
  H     14.790000   14.720000    6.090000
  H     14.900000   15.600000    7.420000
  O     16.900000   13.050000    9.910000
  H     17.070000   12.940000    8.970000
  H     16.720000   12.150000   10.300000
  Q     10.090000    7.270000    6.390000
  Q      9.180000    7.710000    5.140000
  Q      9.670000    7.170000    5.650000
  Q     14.770000   10.520000    4.460000
  Q     13.340000   10.580000    4.250000
  Q     14.030000   10.720000    4.700000
  Q     14.240000   19.820000    4.660000
  Q     13.360000   18.890000    5.480000
  Q     14.050000   19.090000    5.070000
  Q     18.420000   17.960000    5.120000
  Q     18.930000   17.170000    3.930000
  Q     18.530000   17.830000    4.280000
  Q      3.880000    5.510000   10.220000
  Q      3.190000    4.690000    9.040000
  Q      3.790000    4.910000    9.630000
  Q     10.630000    4.480000   17.050000
  Q     11.860000    4.240000   17.950000
  Q     11.120000    4.580000   17.740000
  Q     19.810000    8.210000   10.480000
  Q     20.300000    8.970000   11.820000
  Q     20.270000    8.350000   11.210000
  Q     14.230000    4.060000   14.630000
  Q     13.250000    3.470000   13.630000
  Q     13.800000    3.430000   14.280000
  Q      6.340000    4.560000    5.180000
  Q      5.680000    5.910000    4.830000
  Q      5.790000    5.070000    4.770000
  Q      7.940000   13.360000   16.390000
  Q      7.440000   11.790000   16.560000
  Q      7.590000   12.630000   16.750000
  Q      7.690000   19.370000   11.910000
  Q      7.860000   18.450000   10.660000
  Q      7.510000   18.710000   11.400000
  Q      6.120000    9.220000    7.300000
  Q      5.160000   10.230000    6.430000
  Q      5.450000    9.450000    6.780000
  Q     15.640000    3.230000   16.680000
  Q     16.500000    3.300000   15.360000
  Q     16.300000    3.490000   16.160000
  Q      3.590000    8.790000    2.380000
  Q      3.170000    9.750000    3.400000
  Q      3.460000    9.540000    2.690000
  Q     14.030000   -0.370000    7.600000
  Q     15.410000    0.400000    7.290000
  Q     14.560000    0.250000    7.220000
  Q      4.440000    5.970000   17.570000
  Q      3.840000    6.500000   18.910000
  Q      4.390000    6.480000   18.270000
  Q     17.990000    9.360000   10.790000
  Q     18.260000    9.970000    9.310000
  Q     18.270000    9.940000   10.170000
  Q     15.570000   16.890000   14.490000
  Q     16.600000   17.600000   13.680000
  Q     16.090000   17.510000   14.320000
  Q     14.950000   15.280000   11.280000
  Q     16.020000   14.620000   10.400000
  Q     15.530000   15.250000   10.670000
  Q     13.050000    7.820000   18.480000
  Q     13.170000    7.060000   17.230000
  Q     13.340000    7.190000   18.020000
  Q     16.330000   11.200000   13.780000
  Q     17.660000   11.290000   14.610000
  Q     16.920000   10.960000   14.330000
  Q      7.590000   17.200000    6.430000
  Q      8.810000   17.190000    5.310000
  Q      8.130000   17.510000    5.780000
  Q      8.570000   14.310000    1.320000
  Q      8.260000   14.300000   -0.070000
  Q      8.790000   14.230000    0.540000
  Q      5.780000   16.300000   15.330000
  Q      5.360000   14.900000   14.700000
  Q      5.440000   15.500000   15.330000
  Q     19.690000   18.260000   10.420000
  Q     19.870000   18.650000   11.880000
  Q     19.710000   18.100000   11.240000
  Q      5.930000   12.150000    2.030000
  Q      5.210000   10.830000    2.170000
  Q      5.790000   11.400000    2.410000
  Q     13.710000   16.820000   12.670000
  Q     13.620000   15.390000   12.950000
  Q     14.050000   16.090000   12.800000
  Q      7.390000    9.060000    4.930000
  Q      8.610000    9.960000    4.340000
  Q      8.190000    9.400000    4.890000
  Q     14.400000    6.800000    5.000000
  Q     13.750000    5.920000    3.820000
  Q     14.310000    6.490000    4.210000
  Q      5.400000   18.290000    3.800000
  Q      6.710000   18.390000    4.680000
  Q      5.840000   18.450000    4.480000
  Q     19.030000    5.520000    9.510000
  Q     20.530000    5.040000    9.420000
  Q     19.670000    4.950000    9.370000
  Q     16.790000    0.190000   11.450000
  Q     15.390000    0.530000   11.640000
  Q     15.970000    0.120000   11.280000
  Q      3.210000   14.730000    4.450000
  Q      3.810000   15.570000    5.590000
  Q      3.200000   15.290000    5.100000
  Q     14.270000    3.600000    6.220000
  Q     15.170000    4.350000    7.030000
  Q     14.940000    4.060000    6.310000
  Q     10.980000   12.150000    1.080000
  Q     10.000000   10.980000    0.610000
  Q     10.470000   11.480000    1.150000
  Q     14.670000   18.130000    6.720000
  Q     14.920000   18.500000    8.160000
  Q     15.010000   18.040000    7.480000
  Q      4.540000   19.250000    7.280000
  Q      5.410000   18.800000    6.260000
  Q      5.170000   18.810000    7.040000
  Q     11.710000   13.960000   18.380000
  Q     12.990000   13.090000   18.360000
  Q     12.330000   13.490000   18.010000
  Q     17.190000   18.640000   15.220000
  Q     18.600000   18.480000   15.530000
  Q     17.940000   18.940000   15.380000
  Q      0.790000    3.910000    9.870000
  Q      1.060000    5.360000   10.420000
  Q      0.870000    4.760000    9.850000
  Q     18.310000   12.900000   11.690000
  Q     18.860000   11.520000   11.210000
  Q     18.820000   12.250000   11.710000
  Q      5.500000    7.860000    3.520000
  Q      5.300000    8.300000    5.010000
  Q      5.540000    7.810000    4.360000
  Q      4.240000   10.360000   18.810000
  Q      4.880000   11.610000   19.410000
  Q      4.460000   10.880000   19.430000
  Q      3.750000    8.670000    7.560000
  Q      2.620000    7.570000    7.560000
  Q      3.150000    8.210000    7.910000
  Q      2.760000    9.050000   15.700000
  Q      2.000000    7.970000   14.930000
  Q      2.340000    8.730000   15.090000
  Q     14.790000   13.620000    3.810000
  Q     14.250000   12.720000    4.980000
  Q     14.430000   13.470000    4.560000
  Q     17.870000   17.620000   11.550000
  Q     16.600000   16.930000   11.520000
  Q     17.050000   17.600000   11.680000
  Q      7.170000   15.700000    2.550000
  Q      6.900000   14.650000    3.650000
  Q      7.180000   14.920000    2.880000
  Q      6.740000   21.510000    7.750000
  Q      7.840000   20.530000    7.920000
  Q      7.170000   20.970000    8.180000
  Q      9.210000    1.780000   11.720000
  Q     10.000000    3.070000   11.800000
  Q      9.700000    2.360000   12.080000
  Q      8.650000   20.180000    4.480000
  Q      8.520000   20.400000    2.990000
  Q      8.360000   20.040000    3.710000
  Q     13.400000   13.920000   14.880000
  Q     14.800000   13.630000   14.030000
  Q     13.940000   13.480000   14.330000
  Q      7.160000   21.120000   13.890000
  Q      8.080000   19.930000   14.450000
  Q      7.530000   20.340000   13.910000
  Q      6.490000   15.150000    8.260000
  Q      5.800000   16.330000    7.670000
  Q      6.370000   15.720000    7.670000
  Q     12.180000   20.140000    3.400000
  Q     10.820000   20.600000    4.040000
  Q     11.450000   20.050000    3.820000
  Q      9.370000    5.020000   19.540000
  Q      7.930000    4.630000   19.940000
  Q      8.740000    4.800000   20.080000
  Q     10.070000   10.470000   15.990000
  Q     10.050000   10.510000   17.590000
  Q     10.230000   10.190000   16.790000
  Q     11.470000   13.430000   16.130000
  Q     10.390000   14.370000   15.530000
  Q     11.020000   13.790000   15.520000
  Q      2.830000    9.310000   13.400000
  Q      2.270000    9.740000   12.040000
  Q      2.870000    9.450000   12.560000
  Q      0.450000    8.660000    9.960000
  Q      1.910000    8.990000    9.340000
  Q      1.260000    9.020000    9.950000
  Q     11.280000   14.740000   13.650000
  Q     11.170000   16.270000   13.430000
  Q     11.110000   15.450000   13.210000
  Q     11.570000   18.200000   12.950000
  Q     11.190000   18.480000   14.440000
  Q     11.650000   18.210000   13.810000
  Q     16.730000   10.410000    3.190000
  Q     16.450000    9.150000    4.040000
  Q     16.230000    9.810000    3.540000
  Q      9.390000   17.560000    8.760000
  Q     10.040000   18.470000    9.870000
  Q      9.400000   18.190000    9.370000
  Q     18.870000   13.860000    9.690000
  Q     19.910000   13.250000    8.830000
  Q     19.510000   13.900000    9.160000
  Q      4.610000    3.740000   16.690000
  Q      4.020000    4.410000   15.430000
  Q      4.080000    4.240000   16.260000
  Q     12.390000   10.600000   16.420000
  Q     13.700000   11.360000   15.770000
  Q     13.220000   10.770000   16.190000
  Q      9.060000   21.170000   11.400000
  Q      8.190000   21.370000   10.160000
  Q      8.460000   21.570000   10.950000
  Q      5.300000    4.210000   13.650000
  Q      3.800000    4.120000   13.360000
  Q      4.500000    4.510000   13.580000
  Q     16.040000   15.300000    3.550000
  Q     16.640000   16.720000    3.860000
  Q     16.000000   16.120000    3.750000
  Q     19.060000    8.310000   16.320000
  Q     19.380000    8.040000   14.940000
  Q     18.960000    7.950000   15.640000
  Q     11.520000   20.730000   12.490000
  Q     10.970000   22.120000   12.450000
  Q     10.960000   21.310000   12.640000
  Q     15.710000   16.030000   18.860000
  Q     15.250000   14.610000   18.990000
  Q     15.170000   15.400000   18.780000
  Q      4.520000   10.360000   11.690000
  Q      5.470000   11.550000   11.610000
  Q      5.070000   10.870000   11.290000
  Q     11.470000    1.860000   16.280000
  Q     12.800000    2.380000   17.040000
  Q     12.060000    1.920000   16.880000
  Q     12.470000   19.400000    8.170000
  Q     12.260000   20.730000    9.010000
  Q     12.690000   20.120000    8.590000
  Q      0.450000    7.290000   11.580000
  Q      1.850000    6.860000   11.640000
  Q      1.050000    6.790000   11.810000
  Q     11.150000    7.830000    3.240000
  Q     10.520000    6.820000    4.070000
  Q     10.890000    7.080000    3.390000
  Q     11.950000    8.920000   20.410000
  Q     13.160000    9.850000   20.810000
  Q     12.760000    9.220000   20.400000
  Q      1.860000    9.340000    5.610000
  Q      1.260000   10.360000    4.810000
  Q      1.880000   10.020000    5.200000
  Q     14.700000   19.200000   14.780000
  Q     13.270000   19.330000   14.960000
  Q     14.030000   19.640000   14.880000
  Q     12.850000   15.980000   16.150000
  Q     13.980000   15.060000   16.670000
  Q     13.630000   15.650000   16.150000
  Q     18.400000   10.390000    4.840000
  Q     18.490000    9.720000    6.240000
  Q     18.340000    9.760000    5.390000
  Q      9.320000   15.400000   12.930000
  Q      8.240000   16.460000   12.620000
  Q      8.560000   15.770000   13.010000
  Q     14.150000    3.960000   18.730000
  Q     13.970000    4.790000   17.490000
  Q     13.890000    4.100000   17.960000
  Q     16.170000    6.770000    3.600000
  Q     17.470000    6.880000    2.740000
  Q     17.010000    6.820000    3.460000
  Q      5.990000   18.920000   14.400000
  Q      5.230000   18.900000   15.730000
  Q      5.620000   18.550000   15.060000
  Q     15.250000   12.310000   19.390000
  Q     14.060000   12.260000   20.410000
  Q     14.530000   12.570000   19.760000
  Q     17.770000    1.710000   14.430000
  Q     16.260000    1.270000   14.510000
  Q     16.940000    1.670000   14.200000
  Q     10.290000   15.210000   19.670000
  Q      9.890000   14.050000   20.500000
  Q     10.380000   14.440000   19.960000
  Q      2.530000   11.690000   13.250000
  Q      3.100000   13.090000   13.440000
  Q      2.890000   12.340000   13.680000
  Q     15.890000   20.280000   10.220000
  Q     16.260000   18.820000   10.270000
  Q     15.940000   19.470000    9.900000
  Q     12.380000   16.520000   19.750000
  Q     13.230000   16.190000   18.470000
  Q     12.550000   16.520000   18.930000
  Q     14.580000    3.950000   11.490000
  Q     13.220000    4.800000   11.510000
  Q     13.720000    4.100000   11.610000
  Q     11.530000   19.050000    6.010000
  Q     11.960000   17.660000    6.360000
  Q     11.780000   18.460000    6.530000
  Q     15.290000    7.320000   18.150000
  Q     16.240000    8.450000   18.040000
  Q     16.010000    7.700000   18.250000
  Q      4.520000    8.190000   17.510000
  Q      4.870000    9.110000   16.470000
  Q      4.360000    8.820000   17.030000
  Q      5.770000    3.890000    8.210000
  Q      6.070000    2.720000    7.190000
  Q      6.030000    3.510000    7.470000
  Q     19.300000   11.940000   13.850000
  Q     20.280000   10.960000   14.310000
  Q     19.650000   11.520000   14.440000
  Q     14.770000    1.730000    9.250000
  Q     13.990000    2.640000   10.270000
  Q     14.070000    2.040000    9.650000
  Q      4.110000    6.110000   12.200000
  Q      3.610000    7.570000   11.940000
  Q      3.950000    6.820000   11.720000
  Q      9.990000   19.900000    7.370000
  Q      8.950000   19.250000    6.500000
  Q      9.360000   19.890000    6.840000
  Q      9.710000   18.210000   17.740000
  Q     10.890000   18.910000   18.400000
  Q     10.060000   18.720000   18.280000
  Q     10.030000    1.750000   14.260000
  Q      9.420000    1.570000   15.680000
  Q     10.020000    1.670000   15.090000
  Q     16.840000   11.660000   17.830000
  Q     16.840000   13.260000   17.650000
  Q     17.020000   12.480000   18.000000
  Q      8.060000   15.600000   16.290000
  Q      8.280000   15.390000   14.780000
  Q      8.450000   15.290000   15.610000
  Q      3.690000   11.190000    5.140000
  Q      4.890000   11.370000    4.280000
  Q      4.480000   11.370000    5.030000
  Q     11.990000   13.420000    2.280000
  Q     12.960000   13.960000    1.210000
  Q     12.530000   13.350000    1.670000
  Q      2.470000   11.530000   17.150000
  Q      2.650000   12.110000   15.700000
  Q      2.300000   12.070000   16.490000
  Q     18.100000   15.690000    6.720000
  Q     18.940000   15.050000    7.770000
  Q     18.650000   15.130000    6.980000
  Q      7.610000   17.140000   17.890000
  Q      6.840000   17.870000   16.730000
  Q      7.500000   17.600000   17.160000
  Q     10.110000   13.460000    3.900000
  Q     10.770000   14.890000    3.950000
  Q     10.760000   14.010000    4.070000
  Q     19.260000    5.210000   12.430000
  Q     19.620000    6.720000   12.460000
  Q     19.450000    5.950000   12.780000
  Q     16.300000    2.570000   12.050000
  Q     16.730000    3.010000   10.620000
  Q     16.300000    3.060000   11.350000
  Q     10.050000   16.590000   16.210000
  Q     11.070000   16.740000   17.350000
  Q     10.790000   16.810000   16.560000
  Q     17.240000    7.420000   13.840000
  Q     17.070000    8.900000   13.530000
  Q     17.210000    8.090000   13.350000
  Q     12.270000    0.890000   10.120000
  Q     10.720000    1.020000    9.850000
  Q     11.490000    0.640000   10.000000
  Q      1.500000    3.120000   13.480000
  Q      2.460000    2.600000   14.560000
  Q      2.240000    2.840000   13.790000
  Q      9.460000   16.930000    3.050000
  Q     10.520000   17.400000    4.050000
  Q      9.940000   16.890000    3.740000
  Q     16.480000   14.580000   14.800000
  Q     16.660000   14.850000   13.300000
  Q     16.480000   14.390000   13.970000
  Q      6.150000   13.040000   18.030000
  Q      4.710000   13.650000   18.370000
  Q      5.470000   13.310000   18.520000
  Q     14.270000    7.980000    1.060000
  Q     13.520000    7.420000    2.410000
  Q     13.610000    7.680000    1.570000
  Q     17.240000    6.850000    9.910000
  Q     17.930000    7.460000    8.740000
  Q     17.870000    6.980000    9.410000
  Q      6.570000    0.610000   15.560000
  Q      6.440000    1.540000   14.310000
  Q      6.190000    0.960000   14.880000
  Q     14.160000    1.310000   14.830000
  Q     14.490000   -0.240000   15.130000
  Q     14.600000    0.630000   15.180000
  Q     10.810000    1.110000    7.330000
  Q      9.440000    0.460000    7.170000
  Q      9.970000    1.040000    7.460000
  Q     20.320000   13.930000   11.920000
  Q     21.120000   14.280000   10.830000
  Q     21.030000   14.120000   11.600000
  Q      4.600000   17.040000   10.400000
  Q      5.740000   17.650000   11.280000
  Q      5.150000   17.050000   11.060000
  Q      1.330000   13.970000    8.390000
  Q      2.030000   13.550000    9.790000
  Q      1.390000   13.910000    9.260000
  Q     20.410000    9.730000    8.190000
  Q     20.400000    8.290000    7.720000
  Q     20.110000    8.960000    8.140000
  Q      3.190000    2.690000    7.470000
  Q      2.400000    1.950000    8.560000
  Q      2.980000    2.050000    7.960000
  Q     17.360000   21.090000    6.900000
  Q     16.650000   20.460000    8.060000
  Q     17.130000   21.050000    7.690000
  Q     10.330000    8.310000   17.080000
  Q     10.740000    6.830000   17.360000
  Q     10.220000    7.490000   17.360000
  Q     11.870000   17.260000   10.690000
  Q     12.250000   18.700000   10.670000
  Q     11.770000   18.070000   10.890000
  Q      6.530000    0.210000   11.590000
  Q      5.150000    0.110000   10.830000
  Q      5.750000    0.470000   11.320000
  Q      8.490000    3.870000    4.000000
  Q      9.060000    4.410000    2.620000
  Q      8.690000    3.810000    3.190000
  Q     10.730000    7.490000   20.760000
  Q     10.260000    7.910000   19.230000
  Q     10.360000    7.990000   20.130000
  Q      5.620000    0.580000    6.030000
  Q      4.970000    1.250000    7.280000
  Q      5.620000    1.000000    6.780000
  Q     17.770000    5.430000   13.550000
  Q     16.660000    4.780000   12.680000
  Q     16.970000    5.190000   13.350000
  Q     16.410000    7.340000   11.530000
  Q     14.910000    7.380000   11.230000
  Q     15.700000    7.210000   11.040000
  Q     14.530000   10.800000    0.410000
  Q     13.300000   11.600000    0.900000
  Q     13.750000   11.110000    0.330000
  Q      7.240000    5.350000   15.990000
  Q      7.160000    4.150000   16.860000
  Q      7.380000    4.560000   16.170000
  Q     21.020000   11.720000    7.520000
  Q     22.060000   11.950000    8.610000
  Q     21.410000   11.560000    8.270000
  Q     11.620000    4.350000    7.140000
  Q     10.280000    4.320000    6.240000
  Q     11.120000    4.410000    6.420000
  Q      7.090000   14.230000   10.880000
  Q      6.760000   15.650000   10.380000
  Q      7.040000   14.860000   10.300000
  Q     12.670000    3.540000    9.010000
  Q     11.460000    4.420000    9.440000
  Q     12.150000    4.210000    8.960000
  Q     17.500000    1.290000    8.940000
  Q     17.310000    2.610000    8.150000
  Q     17.210000    2.060000    8.780000
  Q      4.360000   17.570000    8.180000
  Q      3.050000   17.040000    8.700000
  Q      3.880000   17.150000    8.710000
  Q      9.070000    9.420000   20.750000
  Q      8.380000   10.820000   20.750000
  Q      8.610000   10.100000   21.120000
  Q      7.870000    4.220000    6.930000
  Q      8.450000    5.600000    6.270000
  Q      8.300000    4.730000    6.350000
  Q      5.730000   13.360000    4.940000
  Q      6.100000   14.650000    5.810000
  Q      5.800000   14.190000    5.170000
  Q      4.500000   13.600000    9.500000
  Q      4.130000   12.140000   10.040000
  Q      3.990000   12.900000    9.740000
  Q      4.140000   15.170000   16.740000
  Q      3.000000   14.090000   16.990000
  Q      3.530000   14.730000   17.190000
  Q     10.550000   19.980000   16.010000
  Q     10.070000   20.610000   14.630000
  Q     10.040000   20.090000   15.320000
  Q      3.940000    4.680000    5.390000
  Q      2.590000    3.930000    5.500000
  Q      3.280000    4.350000    5.800000
  Q      9.970000   12.310000   19.300000
  Q      8.660000   12.080000   18.400000
  Q      9.330000   11.870000   18.900000
  Q      6.880000    7.000000   17.990000
  Q      8.210000    7.260000   17.350000
  Q      7.400000    7.110000   17.360000
  Q     14.260000   20.020000   12.320000
  Q     14.010000   19.890000   10.880000
  Q     13.780000   19.940000   11.660000
  Q     17.980000    4.580000   16.290000
  Q     18.710000    5.860000   16.100000
  Q     18.640000    5.060000   16.310000
  Q     17.710000   15.550000   16.580000
  Q     16.210000   16.050000   16.440000
  Q     16.870000   15.490000   16.390000
  Q     17.700000   12.460000    3.220000
  Q     18.920000   11.650000    2.710000
  Q     18.270000   11.810000    3.230000
  Q     12.990000    7.320000   14.820000
  Q     12.260000    5.950000   15.060000
  Q     12.680000    6.650000   15.280000
  Q     11.950000    4.350000    4.590000
  Q     12.140000    4.940000    3.200000
  Q     12.280000    4.420000    3.820000
  Q      0.680000    6.370000    6.770000
  Q      2.210000    5.750000    6.460000
  Q      1.540000    6.340000    6.500000
  Q      1.000000   10.920000   10.710000
  Q      0.350000   12.100000   11.420000
  Q      0.780000   11.410000   11.390000
  Q     13.040000   15.500000    5.200000
  Q     13.930000   16.680000    5.040000
  Q     13.280000   16.260000    5.370000
  Q      5.280000   20.090000    9.090000
  Q      5.710000   19.460000   10.450000
  Q      5.170000   19.840000    9.900000
  Q     16.430000   10.200000   16.430000
  Q     15.120000   10.150000   17.320000
  Q     15.970000   10.230000   17.160000
  Q      4.740000   15.550000   12.260000
  Q      3.420000   15.170000   12.880000
  Q      4.220000   15.010000   12.640000
  Q     13.820000    8.980000    6.400000
  Q     13.880000    7.860000    7.400000
  Q     14.150000    8.280000    6.750000
  Q     18.570000   14.600000   13.620000
  Q     19.230000   15.870000   13.020000
  Q     18.710000   15.180000   13.040000
  Q     11.660000   10.650000    2.570000
  Q     12.370000    9.380000    2.050000
  Q     12.050000    9.880000    2.640000
  Q      9.130000    2.460000    8.430000
  Q      7.770000    2.970000    9.150000
  Q      8.580000    3.010000    8.840000
  Q     16.890000   17.980000    7.230000
  Q     18.390000   18.030000    7.570000
  Q     17.710000   17.900000    7.050000
  Q      9.080000   11.760000    2.740000
  Q      7.750000   11.530000    3.360000
  Q      8.560000   11.700000    3.360000
  Q     19.870000   12.170000    5.350000
  Q     19.270000   13.060000    6.400000
  Q     19.670000   12.370000    6.130000

----------------------------
CARTESIAN COORDINATES (A.U.)
----------------------------
  NO LB      ZA    FRAG     MASS         X           Y           Z
   0 C     6.0000    0    12.011   18.557111   16.950843   20.749193
   1 H     1.0000    0     1.008   19.501974   16.365028   19.067337
   2 H     1.0000    0     1.008   16.875254   15.873700   20.843679
   3 C     6.0000    0    12.011   18.103576   19.785433   20.390145
   4 H     1.0000    0     1.008   16.875254   20.182275   18.878364
   5 H     1.0000    0     1.008   17.196508   20.446837   22.147590
   6 C     6.0000    0    12.011   20.711398   21.108241   20.049994
   7 H     1.0000    0     1.008   21.429494   20.484631   18.179165
   8 H     1.0000    0     1.008   22.090899   20.560220   21.467289
   9 C     6.0000    0    12.011   20.711398   24.018419   19.936611
  10 H     1.0000    0     1.008   19.501974   24.509748   21.486186
  11 H     1.0000    0     1.008   19.955508   24.755412   18.141371
  12 O     8.0000    0    15.999   23.092453   25.227844   20.390145
  13 H     1.0000    0     1.008   24.207392   24.736515   19.086234
  14 O     8.0000    0    15.999   20.144481   16.440617   22.960173
  15 H     1.0000    0     1.008   21.883029   16.138261   22.620022
  16 O     8.0000    0    15.999   25.416817   24.320775   15.873700
  17 H     1.0000    0     1.008   23.905036   24.490851   14.985528
  18 H     1.0000    0     1.008   26.531755   25.530200   15.080015
  19 O     8.0000    0    15.999   13.965076   20.598015   26.210501
  20 H     1.0000    0     1.008   13.398158   19.086234   25.208947
  21 H     1.0000    0     1.008   15.798110   20.598015   26.021529
  22 O     8.0000    0    15.999   17.442172   12.453295   25.511303
  23 H     1.0000    0     1.008   16.119364   11.716302   24.415262
  24 H     1.0000    0     1.008   18.670494   13.265877   24.358570
  25 O     8.0000    0    15.999   14.305227   10.431288   22.053104
  26 H     1.0000    0     1.008   13.908384   11.621816   20.654707
  27 H     1.0000    0     1.008   13.681617    8.900610   21.297214
  28 O     8.0000    0    15.999   28.383687   20.295659   18.424830
  29 H     1.0000    0     1.008   28.005741   21.505083   17.120919
  30 H     1.0000    0     1.008   29.082885   18.802775   17.687837
  31 O     8.0000    0    15.999   13.322569   15.609138   24.188495
  32 H     1.0000    0     1.008   12.283220   14.324124   23.659371
  33 H     1.0000    0     1.008   14.588686   14.947734   25.152255
  34 O     8.0000    0    15.999   24.131803   29.933262   18.972850
  35 H     1.0000    0     1.008   23.640474   28.289200   19.520871
  36 H     1.0000    0     1.008   25.945940   29.838776   18.859467
  37 O     8.0000    0    15.999   19.709844   29.725392   16.346131
  38 H     1.0000    0     1.008   18.557111   28.931707   17.498864
  39 H     1.0000    0     1.008   21.372803   29.857673   17.064227
  40 O     8.0000    0    15.999   17.328789   20.446837   14.305227
  41 H     1.0000    0     1.008   18.198063   22.090899   14.324124
  42 H     1.0000    0     1.008   17.026432   19.861022   12.566679
  43 O     8.0000    0    15.999   13.133597   17.990193   17.102022
  44 H     1.0000    0     1.008   14.324124   19.294104   16.648487
  45 H     1.0000    0     1.008   11.886377   18.727186   18.216960
  46 O     8.0000    0    15.999   13.095802   18.462624   31.048200
  47 H     1.0000    0     1.008   13.738309   16.780768   31.161584
  48 H     1.0000    0     1.008   13.398158   18.859467   29.252961
  49 O     8.0000    0    15.999   11.867480   24.226289   23.149145
  50 H     1.0000    0     1.008   10.280110   24.698721   23.905036
  51 H     1.0000    0     1.008   12.698960   23.243631   24.528645
  52 O     8.0000    0    15.999   11.527329   12.698960   17.309891
  53 H     1.0000    0     1.008    9.732090   12.661165   17.328789
  54 H     1.0000    0     1.008   12.037555   14.418610   17.536659
  55 O     8.0000    0    15.999   19.823227    8.465973   20.730296
  56 H     1.0000    0     1.008   20.730296    9.562014   21.901926
  57 H     1.0000    0     1.008   18.405933    9.637603   20.390145
  58 O     8.0000    0    15.999   19.785433   15.873700   15.401268
  59 H     1.0000    0     1.008   18.953953   17.536659   15.382371
  60 H     1.0000    0     1.008   18.500419   14.475302   15.798110
  61 O     8.0000    0    15.999   11.924172    6.406172   19.804330
  62 H     1.0000    0     1.008   11.432843    4.837699   20.616912
  63 H     1.0000    0     1.008   10.299007    7.105370   19.350796
  64 O     8.0000    0    15.999   20.371248    8.465973   28.270303
  65 H     1.0000    0     1.008   19.539768    6.916398   28.648248
  66 H     1.0000    0     1.008   19.029542    9.524220   27.457721
  67 O     8.0000    0    15.999   16.591795   11.924172   16.686282
  68 H     1.0000    0     1.008   14.796556   12.321014   16.705179
  69 H     1.0000    0     1.008   16.572898   10.204521   16.402823
  70 O     8.0000    0    15.999   26.418371   15.703624   24.660926
  71 H     1.0000    0     1.008   27.136467   17.498864   24.453056
  72 H     1.0000    0     1.008   27.986844   15.023323   25.341227
  73 O     8.0000    0    15.999   31.445043   22.865686   13.681617
  74 H     1.0000    0     1.008   32.182036   22.223179   12.113145
  75 H     1.0000    0     1.008   30.594666   24.358570   13.095802
  76 O     8.0000    0    15.999   13.133597    5.801459   25.700275
  77 H     1.0000    0     1.008   14.399713    5.763665   24.434159
  78 H     1.0000    0     1.008   13.832795    6.840809   26.947495
  79 O     8.0000    0    15.999   19.124028   21.032652   26.531755
  80 H     1.0000    0     1.008   20.238967   22.506638   26.588447
  81 H     1.0000    0     1.008   20.144481   19.785433   25.775864
  82 O     8.0000    0    15.999   27.627796   20.673604   23.772755
  83 H     1.0000    0     1.008   27.703385   20.881474   21.977515
  84 H     1.0000    0     1.008   26.286091   21.939720   24.112905
  85 O     8.0000    0    15.999   19.993302   25.057769   13.246980
  86 H     1.0000    0     1.008   20.012200   26.720728   13.738309
  87 H     1.0000    0     1.008   20.182275   25.171152   11.508432
  88 O     8.0000    0    15.999   24.226289   13.303672   16.988638
  89 H     1.0000    0     1.008   22.695611   14.267432   16.667385
  90 H     1.0000    0     1.008   23.753858   11.640713   16.440617
  91 O     8.0000    0    15.999   31.445043   17.631145   15.061117
  92 H     1.0000    0     1.008   30.235618   17.083124   13.757206
  93 H     1.0000    0     1.008   31.180481   19.407487   15.004426
  94 O     8.0000    0    15.999   23.545988   12.207631   22.336563
  95 H     1.0000    0     1.008   23.697166   12.642268   20.560220
  96 H     1.0000    0     1.008   24.490851   13.492645   23.243631
  97 O     8.0000    0    15.999   28.591556   27.892358   13.284775
  98 H     1.0000    0     1.008   27.949050   27.816769   11.508432
  99 H     1.0000    0     1.008   28.156919   29.479728   14.021768
 100 O     8.0000    0    15.999   31.936372   24.660926   18.727186
 101 H     1.0000    0     1.008   32.257625   24.453056   16.950843
 102 H     1.0000    0     1.008   31.596221   22.960173   19.464179
 103 Q     0.6645    0     0.000   19.067337   13.738309   12.075350
 104 Q     0.6645    0     0.000   17.347686   14.569788    9.713192
 105 Q    -1.3290    0     0.000   18.273652   13.549336   10.676953
 106 Q     0.6645    0     0.000   27.911255   19.879919    8.428179
 107 Q     0.6645    0     0.000   25.208947   19.993302    8.031336
 108 Q    -1.3290    0     0.000   26.512858   20.257864    8.881713
 109 Q     0.6645    0     0.000   26.909700   37.454372    8.806124
 110 Q     0.6645    0     0.000   25.246741   35.696927   10.355699
 111 Q    -1.3290    0     0.000   26.550652   36.074872    9.580911
 112 Q     0.6645    0     0.000   34.808755   33.939481    9.675398
 113 Q     0.6645    0     0.000   35.772516   32.446598    7.426624
 114 Q    -1.3290    0     0.000   35.016625   33.693817    8.088028
 115 Q     0.6645    0     0.000    7.332137   10.412391   19.313001
 116 Q     0.6645    0     0.000    6.028226    8.862816   17.083124
 117 Q    -1.3290    0     0.000    7.162062    9.278555   18.198063
 118 Q     0.6645    0     0.000   20.087789    8.465973   32.219831
 119 Q     0.6645    0     0.000   22.412152    8.012439   33.920584
 120 Q    -1.3290    0     0.000   21.013755    8.654946   33.523742
 121 Q     0.6645    0     0.000   37.435475   15.514652   19.804330
 122 Q     0.6645    0     0.000   38.361441   16.950843   22.336563
 123 Q    -1.3290    0     0.000   38.304749   15.779213   21.183830
 124 Q     0.6645    0     0.000   26.890803    7.672288   27.646693
 125 Q     0.6645    0     0.000   25.038871    6.557350   25.756967
 126 Q    -1.3290    0     0.000   26.078221    6.481761   26.985289
 127 Q     0.6645    0     0.000   11.980864    8.617151    9.788781
 128 Q     0.6645    0     0.000   10.733644   11.168281    9.127377
 129 Q    -1.3290    0     0.000   10.941514    9.580911    9.013994
 130 Q     0.6645    0     0.000   15.004426   25.246741   30.972611
 131 Q     0.6645    0     0.000   14.059562   22.279871   31.293865
 132 Q    -1.3290    0     0.000   14.343021   23.867241   31.652913
 133 Q     0.6645    0     0.000   14.531994   36.603995   22.506638
 134 Q     0.6645    0     0.000   14.853247   34.865447   20.144481
 135 Q    -1.3290    0     0.000   14.191843   35.356776   21.542878
 136 Q     0.6645    0     0.000   11.565124   17.423275   13.795001
 137 Q     0.6645    0     0.000    9.750987   19.331898   12.150939
 138 Q    -1.3290    0     0.000   10.299007   17.857912   12.812343
 139 Q     0.6645    0     0.000   29.555317    6.103815   31.520632
 140 Q     0.6645    0     0.000   31.180481    6.236096   29.026193
 141 Q    -1.3290    0     0.000   30.802536    6.595144   30.537974
 142 Q     0.6645    0     0.000    6.784117   16.610693    4.497548
 143 Q     0.6645    0     0.000    5.990432   18.424830    6.425069
 144 Q    -1.3290    0     0.000    6.538452   18.027987    5.083363
 145 Q     0.6645    0     0.000   26.512858   -0.699199   14.361919
 146 Q     0.6645    0     0.000   29.120680    0.755890   13.776104
 147 Q    -1.3290    0     0.000   27.514413    0.472432   13.643823
 148 Q     0.6645    0     0.000    8.390384   11.281665   33.202488
 149 Q     0.6645    0     0.000    7.256548   12.283220   35.734721
 150 Q    -1.3290    0     0.000    8.295898   12.245425   34.525296
 151 Q     0.6645    0     0.000   33.996173   17.687837   20.390145
 152 Q     0.6645    0     0.000   34.506399   18.840570   17.593350
 153 Q    -1.3290    0     0.000   34.525296   18.783878   19.218515
 154 Q     0.6645    0     0.000   29.423036   31.917474   27.382132
 155 Q     0.6645    0     0.000   31.369454   33.259180   25.851454
 156 Q    -1.3290    0     0.000   30.405693   33.089105   27.060878
 157 Q     0.6645    0     0.000   28.251406   28.875015   21.316111
 158 Q     0.6645    0     0.000   30.273413   27.627796   19.653152
 159 Q    -1.3290    0     0.000   29.347447   28.818324   20.163378
 160 Q     0.6645    0     0.000   24.660926   14.777658   34.922139
 161 Q     0.6645    0     0.000   24.887693   13.341467   32.559981
 162 Q    -1.3290    0     0.000   25.208947   13.587131   34.052865
 163 Q     0.6645    0     0.000   30.859228   21.164933   26.040426
 164 Q     0.6645    0     0.000   33.372564   21.335008   27.608899
 165 Q    -1.3290    0     0.000   31.974166   20.711398   27.079775
 166 Q     0.6645    0     0.000   14.343021   32.503290   12.150939
 167 Q     0.6645    0     0.000   16.648487   32.484392   10.034446
 168 Q    -1.3290    0     0.000   15.363473   33.089105   10.922617
 169 Q     0.6645    0     0.000   16.194953   27.041981    2.494438
 170 Q     0.6645    0     0.000   15.609138   27.023084   -0.132281
 171 Q    -1.3290    0     0.000   16.610693   26.890803    1.020452
 172 Q     0.6645    0     0.000   10.922617   30.802536   28.969502
 173 Q     0.6645    0     0.000   10.128932   28.156919   27.778974
 174 Q    -1.3290    0     0.000   10.280110   29.290755   28.969502
 175 Q     0.6645    0     0.000   37.208708   34.506399   19.690946
 176 Q     0.6645    0     0.000   37.548858   35.243392   22.449946
 177 Q    -1.3290    0     0.000   37.246502   34.204043   21.240522
 178 Q     0.6645    0     0.000   11.206076   22.960173    3.836144
 179 Q     0.6645    0     0.000    9.845473   20.465734    4.100706
 180 Q    -1.3290    0     0.000   10.941514   21.542878    4.554240
 181 Q     0.6645    0     0.000   25.908145   31.785194   23.942830
 182 Q     0.6645    0     0.000   25.738070   29.082885   24.471953
 183 Q    -1.3290    0     0.000   26.550652   30.405693   24.188495
 184 Q     0.6645    0     0.000   13.965076   17.120919    9.316350
 185 Q     0.6645    0     0.000   16.270542   18.821672    8.201411
 186 Q    -1.3290    0     0.000   15.476857   17.763426    9.240761
 187 Q     0.6645    0     0.000   27.212056   12.850138    9.448631
 188 Q     0.6645    0     0.000   25.983734   11.187179    7.218754
 189 Q    -1.3290    0     0.000   27.041981   12.264323    7.955747
 190 Q     0.6645    0     0.000   10.204521   34.563091    7.180959
 191 Q     0.6645    0     0.000   12.680062   34.752064    8.843918
 192 Q    -1.3290    0     0.000   11.036001   34.865447    8.465973
 193 Q     0.6645    0     0.000   35.961488   10.431288   17.971296
 194 Q     0.6645    0     0.000   38.796078    9.524220   17.801220
 195 Q    -1.3290    0     0.000   37.170913    9.354144   17.706734
 196 Q     0.6645    0     0.000   31.728502    0.359048   21.637364
 197 Q     0.6645    0     0.000   29.082885    1.001555   21.996412
 198 Q    -1.3290    0     0.000   30.178926    0.226767   21.316111
 199 Q     0.6645    0     0.000    6.066021   27.835666    8.409281
 200 Q     0.6645    0     0.000    7.199857   29.423036   10.563569
 201 Q    -1.3290    0     0.000    6.047124   28.893913    9.637603
 202 Q     0.6645    0     0.000   26.966392    6.803014   11.754097
 203 Q     0.6645    0     0.000   28.667145    8.220309   13.284775
 204 Q    -1.3290    0     0.000   28.232508    7.672288   11.924172
 205 Q     0.6645    0     0.000   20.749193   22.960173    2.040904
 206 Q     0.6645    0     0.000   18.897261   20.749193    1.152733
 207 Q    -1.3290    0     0.000   19.785433   21.694056    2.173185
[...]
 341   Q   :   -0.028517143   -0.282978577    0.159534311
 342   Q   :   -0.253778166    0.117431263   -0.152230479
 343   Q   :    0.271894293    0.162968473   -0.000617656
 344   Q   :    0.251107350   -0.187119054   -0.039989972
 345   Q   :   -0.272840073   -0.129177309    0.034740755
 346   Q   :    0.018820312    0.324151308    0.014255031
 347   Q   :   -0.261105558    0.097372599    0.014588271
 348   Q   :    0.101356811   -0.191705195    0.169579561
 349   Q   :    0.161611395    0.096834208   -0.186472767
 350   Q   :    0.025548699    0.237806245   -0.179538313
 351   Q   :    0.050555572    0.012184640    0.269298717
 352   Q   :   -0.072645140   -0.254774646   -0.085561760
 353   Q   :    0.237550685   -0.114910016   -0.033749663
 354   Q   :   -0.092445720    0.229330221   -0.134572823
 355   Q   :   -0.158014687   -0.115329189    0.150786087
 356   Q   :    0.102125138   -0.040970517    0.287182933
 357   Q   :    0.035224000    0.239596122   -0.154763475
 358   Q   :   -0.129132043   -0.195673486   -0.129363641
 359   Q   :   -0.265850265   -0.004336183    0.020923299
 360   Q   :    0.144555377    0.024831757   -0.259489394
 361   Q   :    0.133836231   -0.019183263    0.233937037
 362   Q   :    0.118436086    0.136734827   -0.214516528
 363   Q   :   -0.123514967    0.131166456    0.229150356
 364   Q   :   -0.003137055   -0.265528131   -0.020405783
 365   Q   :    0.233200474   -0.093754082   -0.113154121
 366   Q   :   -0.148843639   -0.114697293    0.215706859
 367   Q   :   -0.088233007    0.202021920   -0.091049050
 368   Q   :    0.270029611    0.004704323    0.081284788
 369   Q   :   -0.204610741   -0.134105820    0.100630965
 370   Q   :   -0.051522228    0.127322224   -0.186577983
 371   Q   :   -0.048616306    0.284202015   -0.099698125
 372   Q   :   -0.190111027   -0.130423033    0.194935501
 373   Q   :    0.237106047   -0.150798369   -0.089699053
 374   Q   :   -0.112461141   -0.199930509   -0.149071404
 375   Q   :    0.075863353    0.290894280   -0.106442205
 376   Q   :    0.034717614   -0.090338885    0.249210864
 377   Q   :   -0.015433053    0.243947887    0.112476976
 378   Q   :    0.122078794   -0.232243028    0.142240016
 379   Q   :   -0.107798021   -0.009955622   -0.254899798
 380   Q   :   -0.056802285   -0.006153359    0.298444164
 381   Q   :    0.188856514   -0.096145664   -0.127356408
 382   Q   :   -0.130914037    0.105796562   -0.167154128
 383   Q   :    0.241736807   -0.033675901   -0.046243815
 384   Q   :   -0.147912493    0.215969144   -0.041169372
 385   Q   :   -0.106688331   -0.177264030    0.084656792
 386   Q   :   -0.081753189    0.205286251   -0.201824926
 387   Q   :    0.054767756   -0.259857374   -0.077280225
 388   Q   :    0.016297572    0.049833150    0.283246850
 389   Q   :   -0.265228115   -0.125548653   -0.049598120
 390   Q   :    0.073728996    0.292332594   -0.087288331
 391   Q   :    0.202524696   -0.174518817    0.138022119
 392   Q   :    0.079056551   -0.231949723    0.169290315
 393   Q   :    0.196255630    0.095144788   -0.217557442
 394   Q   :   -0.272346200    0.139860190    0.043272878
 395   Q   :   -0.082700991    0.105482179    0.240461142
 396   Q   :    0.007146950   -0.264670515   -0.077278907
 397   Q   :    0.065018931    0.169245622   -0.155796409
 398   Q   :   -0.135750368    0.157867403   -0.237089058
 399   Q   :    0.208172002   -0.188046108   -0.065184305
 400   Q   :   -0.063634749    0.027487000    0.313885835
 401   Q   :    0.230256268   -0.088036072   -0.119860234
 402   Q   :   -0.012934092    0.187717078    0.183742607
 403   Q   :   -0.203725121   -0.108950659   -0.075075389
 404   Q   :    0.035021809   -0.208993637    0.142061864
 405   Q   :   -0.121763526    0.225436271    0.080695884
 406   Q   :    0.089170489   -0.013051639   -0.226661428
 407   Q   :    0.236692414   -0.004845427    0.194315524
 408   Q   :   -0.129516651   -0.220821890   -0.114639493
 409   Q   :   -0.094425371    0.236757729   -0.077672726
 410   Q   :   -0.109333057   -0.204812522   -0.203221498
 411   Q   :    0.279256475    0.052422384    0.024576117
 412   Q   :   -0.171180606    0.153434771    0.183112941
 413   Q   :   -0.015454978    0.029892746   -0.283227435
 414   Q   :   -0.218741999   -0.029113729    0.194048844
 415   Q   :    0.225227302   -0.013235196    0.087575691
 416   Q   :   -0.060098542   -0.245151436   -0.057792189
 417   Q   :   -0.067977460    0.242608256   -0.113838779
 418   Q   :    0.143018195    0.012769142    0.175873840
 419   Q   :   -0.133153311    0.106813906    0.234023181
 420   Q   :   -0.062891135    0.034907725   -0.240808333
 421   Q   :    0.185438261   -0.144343182    0.018099615
 422   Q   :   -0.290186616   -0.070483920    0.018398210
 423   Q   :    0.114997645   -0.003024942   -0.243281968
 424   Q   :    0.170732129    0.084664067    0.224788021
 425   Q   :   -0.205557893    0.036538067    0.219198657
 426   Q   :    0.127131413    0.196691617   -0.130964145
 427   Q   :    0.083294627   -0.223099611   -0.091151499
 428   Q   :    0.067638527   -0.179936704    0.202470331
 429   Q   :    0.124217723    0.001506871   -0.231447654
 430   Q   :   -0.195525955    0.169804544    0.038028440
 431   Q   :   -0.201211463    0.206348482   -0.083029537
 432   Q   :    0.079809050   -0.002464679    0.257780089
 433   Q   :    0.115770862   -0.191208065   -0.181311360
 434   Q   :    0.027191552   -0.156206290    0.228259439
 435   Q   :   -0.249624314    0.086003384   -0.140010879
 436   Q   :    0.219913881    0.076797487   -0.085749658
 437   Q   :   -0.206182145   -0.159313754   -0.059956002
 438   Q   :   -0.002633484    0.246591177   -0.041469189
 439   Q   :    0.217601629   -0.088325943    0.099974670
 440   Q   :   -0.075863520   -0.256761401   -0.133150820
 441   Q   :    0.048025353    0.248020541   -0.112535691
 442   Q   :    0.033833710    0.008830067    0.251290260
 443   Q   :    0.005232780   -0.168578830    0.216459351
 444   Q   :    0.147373481   -0.021809308   -0.227865538
 445   Q   :   -0.143886131    0.182600482    0.007397044
 446   Q   :   -0.249812608   -0.077147910   -0.096240326
 447   Q   :    0.072227557   -0.032056976    0.272491396
 448   Q   :    0.173160162    0.112072134   -0.181326877
 449   Q   :    0.003200091   -0.225976993    0.182129221
 450   Q   :   -0.055964495    0.269788052    0.064522659
 451   Q   :    0.057003425   -0.048807579   -0.242145613
 452   Q   :    0.276448369    0.101971827    0.046465771
 453   Q   :   -0.243206026    0.132636581   -0.043896315
 454   Q   :   -0.040231246   -0.236940384    0.004855545
 455   Q   :   -0.259252916    0.096706173   -0.092660228
 456   Q   :    0.061817880   -0.078485702    0.279766384
 457   Q   :    0.190560546   -0.027268883   -0.186078514
 458   Q   :   -0.162247868    0.024297157   -0.244419676
 459   Q   :    0.203787961    0.187411612    0.106104887
 460   Q   :   -0.044023059   -0.210745568    0.129840749
 461   Q   :   -0.001950791    0.067031237    0.252236436
 462   Q   :    0.060337230    0.172309463   -0.230091176
 463   Q   :   -0.057780427   -0.241096540   -0.034163380
 464   Q   :    0.191031739   -0.078568359   -0.145279373
 465   Q   :   -0.251307994    0.103093135   -0.055443631
 466   Q   :    0.059347406   -0.021628139    0.210680078
 467   Q   :    0.211025255    0.095705214   -0.147951133
 468   Q   :   -0.020487280   -0.071470756    0.246350827
 469   Q   :   -0.189538132   -0.030311897   -0.106248255
 470   Q   :   -0.229688644   -0.041040552    0.184299547
 471   Q   :    0.010236784    0.175919633   -0.240186268
 472   Q   :    0.221358767   -0.128151895    0.049837286
 473   Q   :    0.146942478   -0.109639350    0.234112481
 474   Q   :    0.098021669    0.182701805   -0.175213781
 475   Q   :   -0.246551252   -0.081827526   -0.056705305
 476   Q   :   -0.130654944    0.179176604   -0.115056405
 477   Q   :   -0.039823192   -0.271428914   -0.029393532
 478   Q   :    0.159017202    0.077943500    0.152060701
 479   Q   :    0.274803639    0.009240711   -0.051891824
 480   Q   :   -0.178235072   -0.215797802   -0.109284913
 481   Q   :   -0.090409072    0.194726768    0.148924905
 482   Q   :   -0.293672664   -0.068831655    0.107114281
 483   Q   :    0.019497715    0.065649545   -0.330300499
 484   Q   :    0.278951613    0.004286271    0.224260377
 485   Q   :   -0.160459456    0.002371296   -0.197307175
 486   Q   :    0.175927160    0.187953496    0.052459528
 487   Q   :   -0.022326745   -0.181471060    0.149816159
 488   Q   :   -0.009068205    0.012691213   -0.282851894
 489   Q   :    0.166892534   -0.098646227    0.136025652
 490   Q   :   -0.168411040    0.089605179    0.147377089
 491   Q   :    0.111176907    0.269774948   -0.001886211
 492   Q   :    0.114144311   -0.224997700   -0.155927275
 493   Q   :   -0.224802305   -0.052375987    0.153425720
 494   Q   :    0.060041906    0.234307350   -0.163220019
 495   Q   :   -0.214098932   -0.016743116    0.213048880
 496   Q   :    0.143532153   -0.220240415   -0.042509526
 497   Q   :    0.076978659   -0.002524633   -0.306117740
 498   Q   :   -0.164165012   -0.209287543    0.103513952
 499   Q   :    0.088736891    0.216084784    0.196884482
 500   Q   :    0.044656927    0.227187812   -0.077338889
 501   Q   :    0.185783309   -0.210172609   -0.000897006
 502   Q   :   -0.220752614   -0.029446825    0.067282450
 503   Q   :    0.035453192   -0.257065461   -0.073141680
 504   Q   :    0.179800760    0.224934197   -0.097846445
 505   Q   :   -0.217689103    0.033965171    0.164831798
 506   Q   :    0.255119900   -0.092190913    0.074863708
 507   Q   :   -0.192894482   -0.132252276   -0.171000817
 508   Q   :   -0.064579786    0.216007017    0.099404910
 509   Q   :   -0.069356316    0.036656640    0.290981671
 510   Q   :    0.101724831    0.180472127   -0.151320182
 511   Q   :   -0.033197985   -0.218098770   -0.143158967
 512   Q   :    0.123210197   -0.147698573    0.181520966
 513   Q   :   -0.015458508   -0.021673021   -0.226121471
 514   Q   :   -0.110958397    0.162896095    0.051213406
 515   Q   :   -0.017611879   -0.138907243   -0.247370372
 516   Q   :   -0.211350663    0.081607613    0.151005482
 517   Q   :    0.236285096    0.042945229    0.088358688
 518   Q   :    0.253287002    0.069976798    0.050373392
 519   Q   :   -0.090006364   -0.137140995   -0.236715129
 520   Q   :   -0.173180559    0.063171248    0.190172247
 521   Q   :    0.209607926    0.045129523    0.141967675
 522   Q   :   -0.284493160    0.070113405    0.083719812
 523   Q   :    0.059133812   -0.117351233   -0.235667856
 524   Q   :    0.284512435   -0.100771138    0.046516829
 525   Q   :   -0.117299232    0.142698875    0.183359710
 526   Q   :   -0.164173879   -0.049697990   -0.233711084
 527   Q   :   -0.066302710    0.282077438   -0.061136272
 528   Q   :   -0.094490112   -0.140897280    0.257244000
 529   Q   :    0.158200457   -0.141974335   -0.190928735
 530   Q   :   -0.106711183    0.060897076   -0.232056070
 531   Q   :    0.238194284    0.159433931    0.108072903
 532   Q   :   -0.115630372   -0.220385256    0.135727701
 533   Q   :    0.141156271   -0.018916737    0.210269945
 534   Q   :   -0.258213499   -0.033600205   -0.047640706
 535   Q   :    0.118819753    0.052592474   -0.166337975
 536   Q   :    0.015550779   -0.190102655    0.187112404
 537   Q   :   -0.093686503    0.270956186    0.032395554
 538   Q   :    0.089291879   -0.081054572   -0.216810633
 539   Q   :    0.163982546   -0.219674024    0.021250071
 540   Q   :   -0.203520953    0.063783308    0.137602750
 541   Q   :    0.043582076    0.152443374   -0.155337548
 542   Q   :    0.109923137   -0.276918255    0.043634323
 543   Q   :    0.040442267    0.178063839   -0.225371686
 544   Q   :   -0.145781770    0.095750363    0.174641179
 545   Q   :    0.154469769    0.140004569   -0.197133990
 546   Q   :   -0.293231684   -0.028521916   -0.019859789
 547   Q   :    0.124022210   -0.117805287    0.211474772
 548   Q   :    0.122906647   -0.170722220   -0.114591551
 549   Q   :   -0.075093088    0.255956666   -0.141008302
 550   Q   :   -0.057557956   -0.077354060    0.260852417
 551   Q   :   -0.120242783   -0.132275820    0.172602360
 552   Q   :    0.028828126    0.250683934   -0.007796538
 553   Q   :    0.086240826   -0.114921808   -0.158646071
 554   Q   :   -0.008477342   -0.264556100   -0.076180389
 555   Q   :    0.107775734    0.147418021    0.212615040
 556   Q   :   -0.105370611    0.112708526   -0.137895604
 557   Q   :    0.153796108    0.194219575   -0.070759578
 558   Q   :    0.055417838   -0.269631024    0.101549988
 559   Q   :   -0.203525560    0.078923513   -0.038965415
 560   Q   :    0.172938138    0.124634449   -0.133941873
 561   Q   :   -0.164313934   -0.207853943   -0.077065058
 562   Q   :   -0.019362941    0.095902752    0.216349803
 563   Q   :    0.180459866   -0.028266486    0.212519494
 564   Q   :    0.016248899    0.165235416   -0.208341602
 565   Q   :   -0.194912139   -0.135569819    0.008819102
 566   Q   :    0.192341734    0.111701654   -0.146389208
 567   Q   :   -0.226687396   -0.132415947   -0.104049365
 568   Q   :    0.036246135    0.016297645    0.245722382
 569   Q   :    0.193548640    0.146173403    0.123500301
 570   Q   :   -0.203037177    0.076133788   -0.150877655
 571   Q   :    0.009890488   -0.220924292    0.040640115
 572   Q   :   -0.178607821   -0.042116457    0.240897029
 573   Q   :    0.277280411    0.057750861    0.008649017
 574   Q   :   -0.107627251   -0.018906441   -0.242188571
 575   Q   :    0.199507393    0.032458585    0.226624803
 576   Q   :    0.102080047   -0.014432043   -0.292566932
 577   Q   :   -0.294886314   -0.014656131    0.072359267
 578   Q   :   -0.249072317   -0.164705002   -0.019910284
 579   Q   :    0.008782364    0.285375404   -0.082762265
 580   Q   :    0.248529216   -0.121518630    0.102124522
 581   Q   :    0.271451820    0.032956048    0.064179006
 582   Q   :   -0.193922269    0.184601200    0.018678213
 583   Q   :   -0.071872018   -0.207904178   -0.072167494
 584   Q   :   -0.180162053    0.215100591   -0.016661518
 585   Q   :    0.216412393   -0.038284713   -0.184313106
 586   Q   :   -0.033476061   -0.169035074    0.196227323
 587   Q   :    0.093069799    0.203099016   -0.153525788
 588   Q   :   -0.136599874   -0.227121042   -0.091661851
 589   Q   :    0.042642665    0.023190385    0.234365786
 590   Q   :   -0.116071149   -0.010139415    0.248995194
 591   Q   :   -0.052315925    0.209193488   -0.229392910
 592   Q   :    0.174540434   -0.209193598   -0.027214035
 593   Q   :   -0.245067105    0.003169234    0.081027696
 594   Q   :    0.174231366   -0.161573972    0.002148563
 595   Q   :    0.053456839    0.159819999   -0.086897483
 596   Q   :    0.061442456   -0.134842878   -0.217931200
 597   Q   :   -0.172088769    0.269987266   -0.004954038
 598   Q   :    0.102863356   -0.123367657    0.225127788
 599   Q   :   -0.081964353   -0.289518416   -0.073847653
 600   Q   :    0.216936468    0.128687258   -0.114093390
 601   Q   :   -0.134708956    0.155850743    0.190780544
 602   Q   :    0.036349908    0.077361803   -0.276908600
 603   Q   :    0.183987993   -0.131747423    0.169344364
 604   Q   :   -0.232548683    0.052230495    0.106108914
 605   Q   :    0.138538910   -0.009654748   -0.227558669
 606   Q   :   -0.256453044   -0.026005317    0.045071866
 607   Q   :    0.114906666    0.026563101    0.184479194
 608   Q   :    0.164518085    0.180975158   -0.116698047
 609   Q   :   -0.273041464    0.060538824    0.079485535
 610   Q   :    0.105023134   -0.245075192    0.038249409
 611   Q   :   -0.119657580    0.235538575   -0.100057727
 612   Q   :   -0.108560665   -0.138349827    0.238504907
 613   Q   :    0.222099688   -0.098982640   -0.139533418
 614   Q   :   -0.037271803   -0.201268541    0.217446306
 615   Q   :    0.166822778    0.219349547    0.013129223
 616   Q   :   -0.121118008   -0.011821575   -0.227242035
 617   Q   :   -0.110341342    0.247020219   -0.021732576
 618   Q   :    0.103113447   -0.157682712   -0.211014113
 619   Q   :    0.007183065   -0.084072126    0.236278944
 620   Q   :    0.148678684   -0.161447269   -0.108173916
 621   Q   :   -0.252637927   -0.024332390    0.093969420
 622   Q   :    0.104833659    0.185492605    0.021652891
 623   Q   :   -0.254403632    0.032949648    0.074580359
 624   Q   :    0.212066099    0.043296294    0.178127287
 625   Q   :    0.050441323   -0.069368496   -0.242424852
 626   Q   :    0.184085555    0.024569234   -0.240216566
 627   Q   :   -0.284671931   -0.064998815   -0.010615759
 628   Q   :    0.098818862    0.049867147    0.258431659
 629   Q   :    0.067582712   -0.058844381   -0.292696011
 630   Q   :   -0.134276456    0.228706434    0.072266215
 631   Q   :    0.062396608   -0.175425826    0.210970682

Difference to translation invariance:
           :   -0.0003497082    0.0002994362    0.0004422833

Difference to rotation invariance:
           :    0.0025707314   -0.0248853603    0.0071643603

Norm of the cartesian gradient     ...    6.3449968701
RMS gradient                       ...    0.1458330991
MAX gradient                       ...    0.3365006781

-------
TIMINGS
-------

Total SCF gradient time            ...      193.872 sec

One electron gradient       ....      25.794 sec  ( 13.3%)
RI-J Coulomb gradient       ....      10.479 sec  (  5.4%)
COSX gradient               ....     119.197 sec  ( 61.5%)
XC gradient                 ....      16.526 sec  (  8.5%)

Maximum memory used throughout the entire SCFGRAD-calculation: 761.4 MB

                            ***************************************
                            *     ORCA property calculations      *
                            ***************************************

                                    ---------------------
                                    Active property flags
                                    ---------------------
   (+) Dipole Moment


------------------------------------------------------------------------------
                       ORCA ELECTRIC PROPERTIES CALCULATION
------------------------------------------------------------------------------

Dipole Moment Calculation                       ... on
Quadrupole Moment Calculation                   ... off
Polarizability Calculation                      ... off
GBWName                                         ... final097.orca.gbw
Electron density                                ... final097.orca.scfp
The origin for moment calculation is the CENTER OF MASS  = (20.319941, 18.189855 20.244076)

-------------
DIPOLE MOMENT
-------------
                                X             Y             Z
Electronic contribution:      1.98522       0.24167       0.94764
Nuclear contribution   :     -5.69368      12.98994     -22.82243
                        -----------------------------------------
Total Dipole Moment    :     -3.70846      13.23161     -21.87480
                        -----------------------------------------
Magnitude (a.u.)       :     25.83283
Magnitude (Debye)      :     65.66183



--------------------
Rotational spectrum 
--------------------
 
Rotational constants in cm-1:     0.002639     0.001308     0.001190 
Rotational constants in MHz :    79.119336    39.218415    35.686526 

 Dipole components along the rotational axes: 
x,y,z [a.u.] :   -14.699156    -9.363383    19.068215 
x,y,z [Debye]:   -37.362285   -23.799827    48.467550 

 

Timings for individual modules:

Sum of individual times         ...      791.738 sec (=  13.196 min)
GTO integral calculation        ...       13.069 sec (=   0.218 min)   1.7 %
SCF iterations                  ...      580.228 sec (=   9.670 min)  73.3 %
SCF Gradient evaluation         ...      198.440 sec (=   3.307 min)  25.1 %
                             ****ORCA TERMINATED NORMALLY****
TOTAL RUN TIME: 0 days 0 hours 13 minutes 19 seconds 602 msec
