
                                 *****************
                                 * O   R   C   A *
                                 *****************

                                            #,                                       
                                            ###                                      
                                            ####                                     
                                            #####                                    
                                            ######                                   
                                           ########,                                 
                                     ,,################,,,,,                         
                               ,,#################################,,                 
                          ,,##########################################,,             
                       ,#########################################, ''#####,          
                    ,#############################################,,   '####,        
                  ,##################################################,,,,####,       
                ,###########''''           ''''###############################       
              ,#####''   ,,,,##########,,,,          '''####'''          '####       
            ,##' ,,,,###########################,,,                        '##       
           ' ,,###''''                  '''############,,,                           
         ,,##''                                '''############,,,,        ,,,,,,###''
      ,#''                                            '''#######################'''  
     '                                                          ''''####''''         
             ,#######,   #######,   ,#######,      ##                                
            ,#'     '#,  ##    ##  ,#'     '#,    #''#        ######   ,####,        
            ##       ##  ##   ,#'  ##            #'  '#       #        #'  '#        
            ##       ##  #######   ##           ,######,      #####,   #    #        
            '#,     ,#'  ##    ##  '#,     ,#' ,#      #,         ##   #,  ,#        
             '#######'   ##     ##  '#######'  #'      '#     #####' # '####'        



                  #######################################################
                  #                        -***-                        #
                  #          Department of theory and spectroscopy      #
                  #    Directorship and core code : Frank Neese         #
                  #        Max Planck Institute fuer Kohlenforschung    #
                  #                Kaiser Wilhelm Platz 1               #
                  #                 D-45470 Muelheim/Ruhr               #
                  #                      Germany                        #
                  #                                                     #
                  #                  All rights reserved                #
                  #                        -***-                        #
                  #######################################################


                         Program Version 5.0.3 -  RELEASE  -


 With contributions from (in alphabetic order):
   Daniel Aravena         : Magnetic Suceptibility
   Michael Atanasov       : Ab Initio Ligand Field Theory (pilot matlab implementation)
   Alexander A. Auer      : GIAO ZORA, VPT2 properties, NMR spectrum
   Ute Becker             : Parallelization
   Giovanni Bistoni       : ED, misc. LED, open-shell LED, HFLD
   Martin Brehm           : Molecular dynamics
   Dmytro Bykov           : SCF Hessian
   Vijay G. Chilkuri      : MRCI spin determinant printing, contributions to CSF-ICE
   Dipayan Datta          : RHF DLPNO-CCSD density
   Achintya Kumar Dutta   : EOM-CC, STEOM-CC
   Dmitry Ganyushin       : Spin-Orbit,Spin-Spin,Magnetic field MRCI
   Miquel Garcia          : C-PCM and meta-GGA Hessian, CC/C-PCM, Gaussian charge scheme
   Yang Guo               : DLPNO-NEVPT2, F12-NEVPT2, CIM, IAO-localization
   Andreas Hansen         : Spin unrestricted coupled pair/coupled cluster methods
   Benjamin Helmich-Paris : MC-RPA, TRAH-SCF, COSX integrals
   Lee Huntington         : MR-EOM, pCC
   Robert Izsak           : Overlap fitted RIJCOSX, COSX-SCS-MP3, EOM
   Marcus Kettner         : VPT2
   Christian Kollmar      : KDIIS, OOCD, Brueckner-CCSD(T), CCSD density, CASPT2, CASPT2-K
   Simone Kossmann        : Meta GGA functionals, TD-DFT gradient, OOMP2, MP2 Hessian
   Martin Krupicka        : Initial AUTO-CI
   Lucas Lang             : DCDCAS
   Marvin Lechner         : AUTO-CI (C++ implementation), FIC-MRCC
   Dagmar Lenk            : GEPOL surface, SMD
   Dimitrios Liakos       : Extrapolation schemes; Compound Job, initial MDCI parallelization
   Dimitrios Manganas     : Further ROCIS development; embedding schemes
   Dimitrios Pantazis     : SARC Basis sets
   Anastasios Papadopoulos: AUTO-CI, single reference methods and gradients
   Taras Petrenko         : DFT Hessian,TD-DFT gradient, ASA, ECA, R-Raman, ABS, FL, XAS/XES, NRVS
   Peter Pinski           : DLPNO-MP2, DLPNO-MP2 Gradient
   Christoph Reimann      : Effective Core Potentials
   Marius Retegan         : Local ZFS, SOC
   Christoph Riplinger    : Optimizer, TS searches, QM/MM, DLPNO-CCSD(T), (RO)-DLPNO pert. Triples
   Tobias Risthaus        : Range-separated hybrids, TD-DFT gradient, RPA, STAB
   Michael Roemelt        : Original ROCIS implementation
   Masaaki Saitow         : Open-shell DLPNO-CCSD energy and density
   Barbara Sandhoefer     : DKH picture change effects
   Avijit Sen             : IP-ROCIS
   Kantharuban Sivalingam : CASSCF convergence, NEVPT2, FIC-MRCI
   Bernardo de Souza      : ESD, SOC TD-DFT
   Georgi Stoychev        : AutoAux, RI-MP2 NMR, DLPNO-MP2 response
   Willem Van den Heuvel  : Paramagnetic NMR
   Boris Wezisla          : Elementary symmetry handling
   Frank Wennmohs         : Technical directorship


 We gratefully acknowledge several colleagues who have allowed us to
 interface, adapt or use parts of their codes:
   Stefan Grimme, W. Hujo, H. Kruse, P. Pracht,  : VdW corrections, initial TS optimization,
                  C. Bannwarth, S. Ehlert          DFT functionals, gCP, sTDA/sTD-DF
   Ed Valeev, F. Pavosevic, A. Kumar             : LibInt (2-el integral package), F12 methods
   Garnet Chan, S. Sharma, J. Yang, R. Olivares  : DMRG
   Ulf Ekstrom                                   : XCFun DFT Library
   Mihaly Kallay                                 : mrcc  (arbitrary order and MRCC methods)
   Jiri Pittner, Ondrej Demel                    : Mk-CCSD
   Frank Weinhold                                : gennbo (NPA and NBO analysis)
   Christopher J. Cramer and Donald G. Truhlar   : smd solvation model
   Lars Goerigk                                  : TD-DFT with DH, B97 family of functionals
   V. Asgeirsson, H. Jonsson                     : NEB implementation
   FAccTs GmbH                                   : IRC, NEB, NEB-TS, DLPNO-Multilevel, CI-OPT
                                                   MM, QMMM, 2- and 3-layer-ONIOM, Crystal-QMMM,
                                                   LR-CPCM, SF, NACMEs, symmetry and pop. for TD-DFT,
                                                   nearIR, NL-DFT gradient (VV10), updates on ESD,
                                                   ML-optimized integration grids
   S Lehtola, MJT Oliveira, MAL Marques          : LibXC Library
   Liviu Ungur et al                             : ANISO software


 Your calculation uses the libint2 library for the computation of 2-el integrals
 For citations please refer to: http://libint.valeyev.net

 Your ORCA version has been built with support for libXC version: 5.1.0
 For citations please refer to: https://tddft.org/programs/libxc/

 This ORCA versions uses:
   CBLAS   interface :  Fast vector & matrix operations
   LAPACKE interface :  Fast linear algebra routines
   SCALAPACK package :  Parallel linear algebra routines
   Shared memory     :  Shared parallel matrices
   BLAS/LAPACK       :  OpenBLAS 0.3.15  USE64BITINT DYNAMIC_ARCH NO_AFFINITY SkylakeX SINGLE_THREADED
        Core in use  :  SkylakeX
   Copyright (c) 2011-2014, The OpenBLAS Project


================================================================================

----- Orbital basis set information -----
Your calculation utilizes the basis: def2-SVP
   F. Weigend and R. Ahlrichs, Phys. Chem. Chem. Phys. 7, 3297 (2005).

The basis set includes element-specific modifications.

Your calculation utilizes the basis: aug-cc-pVTZ 
    H, B-Ne : Obtained from the ccRepo (grant-hill.group.shef.ac.uk/ccrepo) Feb. 2017
              R. A. Kendall, T. H. Dunning, Jr., R. J. Harrison, J. Chem. Phys. 96, 6796 (1992)
         He : Obtained from the ccRepo (grant-hill.group.shef.ac.uk/ccrepo) Feb. 2017
              D. E. Woon, T. H. Dunning, Jr., J. Chem. Phys. 100, 2975 (1994)
  Li-Be, Na : Obtained from the ccRepo (grant-hill.group.shef.ac.uk/ccrepo) Feb. 2017
              B. P. Prascher, D. E. Woon, K. A. Peterson, T. H. Dunning, Jr., A. K. Wilson, Theor. Chem. Acc. 128, 69 (2011)
         Mg : Obtained from the Peterson Research Group Website (tyr0.chem.wsu.edu/~kipeters) Feb. 2017
              B. P. Prascher, D. E. Woon, K. A. Peterson, T. H. Dunning, Jr., A. K. Wilson, Theor. Chem. Acc. 128, 69 (2011)
      Al-Ar : Obtained from the ccRepo (grant-hill.group.shef.ac.uk/ccrepo) Feb. 2017
              D. E. Woon, T. H. Dunning, Jr., J. Chem. Phys. 98, 1358 (1993)
      Sc-Zn : Obtained from the ccRepo (grant-hill.group.shef.ac.uk/ccrepo) Feb. 2017
              N. B. Balabanov, K. A. Peterson, J. Chem. Phys. 123, 064107 (2005)
              N. B. Balabanov, K. A. Peterson, J. Chem. Phys. 125, 074110 (2006)
      Ga-Kr : Obtained from the ccRepo (grant-hill.group.shef.ac.uk/ccrepo) Feb. 2017
              A. K. Wilson, D. E. Woon, K. A. Peterson, T. H. Dunning, Jr., J. Chem. Phys. 110, 7667 (1999)
     Ag, Au : Obtained from the Peterson Research Group Website (tyr0.chem.wsu.edu/~kipeters) Feb. 2017
              K. A. Peterson, C. Puzzarini, Theor. Chem. Acc. 114, 283 (2005)

Your calculation utilizes the basis: cc-pVTZ 
       H, B-Ne : Obtained from the ccRepo (grant-hill.group.shef.ac.uk/ccrepo) Feb. 2017
                 T. H. Dunning, Jr., J. Chem. Phys. 90, 1007 (1989)
            He : Obtained from the ccRepo (grant-hill.group.shef.ac.uk/ccrepo) Feb. 2017
                 D. E. Woon, T. H. Dunning, Jr., J. Chem. Phys. 100, 2975 (1994)
  Li-Be, Na-Mg : Obtained from the ccRepo (grant-hill.group.shef.ac.uk/ccrepo) Feb. 2017
                 B. P. Prascher, D. E. Woon, K. A. Peterson, T. H. Dunning, Jr., A. K. Wilson, Theor. Chem. Acc. 128, 69 (2011)
         Al-Ar : Obtained from the ccRepo (grant-hill.group.shef.ac.uk/ccrepo) Feb. 2017
                 D. E. Woon, T. H. Dunning, Jr., J. Chem. Phys. 98, 1358 (1993)
            Ca : Obtained from the Peterson Research Group Website (tyr0.chem.wsu.edu/~kipeters) Feb. 2017
                 J. Koput, K. A. Peterson, J. Phys. Chem. 106, 9595 (2002)
         Sc-Zn : Obtained from the ccRepo (grant-hill.group.shef.ac.uk/ccrepo) Feb. 2017
                 N. B. Balabanov, K. A. Peterson, J. Chem. Phys. 123, 064107 (2005)
                 N. B. Balabanov, K. A. Peterson, J. Chem. Phys. 125, 074110 (2006)
         Ga-Kr : Obtained from the ccRepo (grant-hill.group.shef.ac.uk/ccrepo) Feb. 2017
                 A. K. Wilson, D. E. Woon, K. A. Peterson, T. H. Dunning, Jr., J. Chem. Phys. 110, 7667 (1999)
             Y : Obtained from the ccRepo (grant-hill.group.shef.ac.uk/ccrepo) Feb. 2017
                 K. A. Peterson, D. Figgen, M. Dolg, H. Stoll, J. Chem. Phys. 126, 124101 (2007)
        Ag, Au : Obtained from the Peterson Research Group Website (tyr0.chem.wsu.edu/~kipeters) Feb. 2017
                 K. A. Peterson, C. Puzzarini, Theor. Chem. Acc. 114, 283 (2005)

----- AuxJ basis set information -----
Your calculation utilizes the auxiliary basis: def2/J
   F. Weigend, Phys. Chem. Chem. Phys. 8, 1057 (2006).

================================================================================
                                        WARNINGS
                       Please study these warnings very carefully!
================================================================================

WARNING: The globally-selected AuxJ basis set is optimized for use with ECPs
         Make sure a suitable alternative is explicitly given all heavy elements (Z>36)

INFO   : the flag for use of the SHARK integral package has been found!

================================================================================
                                       INPUT FILE
================================================================================
NAME = final061.orca.inp
|  1> ! NoMOPrint PrintBasis #MINIPRINT SMALLPRINT LARGEPRINT
|  2> ! ALLPOP XYZFILE
|  3> #! BP86 3-21G   TightSCF
|  4> ! ENGRAD
|  5> ! B3LYP NormalPNO PModel #DecontractAux
|  6> #! VerySlowConv 
|  7>  %maxcore 5000
|  8>  %scf  maxiter   500  end 
|  9> 
| 10> %pal
| 11>     nprocs 32
| 12> end
| 13> 
| 14> %basis
| 15>     NewGTO O    # New basis for oxygen
| 16>         "aug-cc-pVTZ"
| 17>     end
| 18>     NewGTO C    # New basis for carbon
| 19>         "aug-cc-pVTZ"
| 20>     end
| 21>     NewGTO H    # New basis for hydrogen
| 22>         "cc-pVTZ"
| 23>     end
| 24> end
| 25> 
| 26> * xyz 0   1
| 27>   C  11.49  11.06  12.03  #1
| 28>   H  12.32  10.68  11.47  #2
| 29>   H  10.81  10.24  12.25  #3
| 30>   C  10.62  12.22  11.45  #4
| 31>   H  9.94  12.62  12.23  #5
| 32>   H  11.45  12.93  11.25  #6
| 33>   C  9.75  11.87  10.17  #7
| 34>   H  9.87  12.73  9.53  #8
| 35>   H  8.69  11.94  10.29  #9
| 36>   C  10.23  10.71  9.37  #10
| 37>   H  11.25  10.88  9.09  #11
| 38>   H  9.64  10.67  8.44  #12
| 39>   O  10.02  9.47  10  #13
| 40>   H  10.45  8.81  9.44  #14
| 41>   O  11.99  11.51  13.29  #15
| 42>   H  13.04  11.5  13.28  #16
| 43>   O  14.94  11.48  12.87  #17
| 44>   H  14.85  10.79  12.2  #18
| 45>   H  15.38  11.04  13.56  #19
| 46>   O  10.09  7.42  8.05  #20
| 47>   H  10.84  7.86  7.7  #21
| 48>   H  9.28  7.88  7.73  #22
| 49>   O  9.93  9.87  14.96  #23
| 50>   H  9.46  10.44  15.55  #24
| 51>   H  10.85  10.2  14.83  #25
| 52>   O  13.8  14.05  9.87  #26
| 53>   H  13.05  14.55  9.54  #27
| 54>   H  14.02  14.53  10.71  #28
| 55>   O  14.5  9.69  10.84  #29
| 56>   H  14.04  8.84  10.96  #30
| 57>   H  14.04  10.18  10.14  #31
| 58>   O  12.17  5.95  9.28  #32
| 59>   H  13.02  5.58  8.93  #33
| 60>   H  11.8  6.46  8.54  #34
| 61>   O  12.5  7.9  7.26  #35
| 62>   H  13.39  7.93  7.65  #36
| 63>   H  12.67  7.85  6.3  #37
| 64>   O  8.54  15.71  11.67  #38
| 65>   H  8.2  15.02  12.24  #39
| 66>   H  8.55  16.46  12.3  #40
| 67>   O  7.91  5.85  6.04  #41
| 68>   H  7.74  6.72  6.4  #42
| 69>   H  8.16  5.36  6.85  #43
| 70>   O  10.29  9.98  6.28  #44
| 71>   H  10.98  10.67  6.28  #45
| 72>   H  9.84  9.97  5.39  #46
| 73>   O  14.92  9.53  15.03  #47
| 74>   H  14.82  8.65  14.74  #48
| 75>   H  15.89  9.59  15.12  #49
| 76>   O  7.23  8.24  7.04  #50
| 77>   H  7.22  9.02  6.42  #51
| 78>   H  6.7  8.51  7.75  #52
| 79>   O  14  11.59  8.73  #53
| 80>   H  14.15  12.34  9.32  #54
| 81>   H  14.8  11.69  8.17  #55
| 82>   O  12.3  11.83  6.45  #56
| 83>   H  12.92  11.83  7.21  #57
| 84>   H  12.28  12.83  6.34  #58
| 85>   O  16.04  14.66  8.37  #59
| 86>   H  15.32  14.29  8.92  #60
| 87>   H  15.58  14.89  7.54  #61
| 88>   O  11.74  12.83  15.68  #62
| 89>   H  11.95  12.34  14.9  #63
| 90>   H  10.8  12.83  15.85  #64
| 91>   O  10.26  7.86  12.94  #65
| 92>   H  9.55  8.16  12.35  #66
| 93>   H  10.15  8.49  13.68  #67
| 94>   O  16.74  8.61  10.07  #68
| 95>   H  16.89  7.9  10.66  #69
| 96>   H  15.95  9.04  10.44  #70
| 97>   O  8.01  9.23  11.51  #71
| 98>   H  7.15  9.66  11.52  #72
| 99>   H  8.57  9.52  10.77  #73
|100>   O  12.62  16.26  8.45  #74
|101>   H  12.23  15.77  7.76  #75
|102>   H  11.84  16.54  9.03  #76
|103>   O  12.91  7.49  11.47  #77
|104>   H  12.75  6.92  10.71  #78
|105>   H  12.02  7.72  11.79  #79
|106>   O  8.45  12.24  5.7  #80
|107>   H  7.57  11.94  5.88  #81
|108>   H  8.92  11.53  6.17  #82
|109>   O  8.94  11.52  17.15  #83
|110>   H  8.47  12.31  16.97  #84
|111>   H  8.48  11.02  17.84  #85
|112>   O  11.43  7.97  16.96  #86
|113>   H  10.84  8.45  16.41  #87
|114>   H  11.92  8.72  17.27  #88
|115>   O  17.2  15.59  11.33  #89
|116>   H  16.21  15.58  11.32  #90
|117>   H  17.48  14.88  11.9  #91
|118>   O  7.66  13.55  13.5  #92
|119>   H  7.41  12.72  13.06  #93
|120>   H  6.82  13.98  13.76  #94
|121>   O  14.68  14.23  12.53  #95
|122>   H  15.15  14.55  13.28  #96
|123>   H  14.93  13.31  12.49  #97
|124>   O  7.03  8.75  14.98  #98
|125>   H  6.6  8.1  14.44  #99
|126>   H  7.64  9.14  14.37  #100
|127>   O  17.23  11.03  15.07  #101
|128>   H  17.4  11.22  16.01  #102
|129>   H  17.77  10.24  14.83  #103
|130>   Q  0.6645  15.41$  7.46$  7.3$
|131>   Q  0.6645  15.55$  8.27$  8.62$
|132>   Q  -1.3290  15.23$  8.07$  7.85$
|133>   Q  0.6645  3.22$  13.62$  16.49$
|134>   Q  0.6645  3.6$  12.13$  16.61$
|135>   Q  -1.3290  3.07$  12.8$  16.64$
|136>   Q  0.6645  13.01$  1.8$  7.29$
|137>   Q  0.6645  11.94$  3$  6.94$
|138>   Q  -1.3290  12.57$  2.54$  7.38$
|139>   Q  0.6645  11.86$  6.94$  4.18$
|140>   Q  0.6645  11.48$  8.26$  4.85$
|141>   Q  -1.3290  12$  7.68$  4.5$
|142>   Q  0.6645  18.4$  5.52$  7.04$
|143>   Q  0.6645  19.13$  5.39$  8.4$
|144>   Q  -1.3290  19.06$  5.4$  7.58$
|145>   Q  0.6645  10.61$  18.09$  10.03$
|146>   Q  0.6645  9.34$  19.02$  10.4$
|147>   Q  -1.3290  10.18$  18.79$  10.23$
|148>   Q  0.6645  4.21$  12.01$  14.31$
|149>   Q  0.6645  5.37$  11.6$  15.32$
|150>   Q  -1.3290  4.76$  11.49$  14.74$
|151>   Q  0.6645  4.93$  4.32$  10.67$
|152>   Q  0.6645  6.45$  4.55$  10.33$
|153>   Q  -1.3290  5.75$  4.09$  10.51$
|154>   Q  0.6645  8.71$  15.47$  6.04$
|155>   Q  0.6645  8.4$  14.09$  6.58$
|156>   Q  -1.3290  8.76$  14.88$  6.61$
|157>   Q  0.6645  16.51$  17.79$  10.18$
|158>   Q  0.6645  15.96$  19.1$  10.65$
|159>   Q  -1.3290  15.95$  18.26$  10.54$
|160>   Q  0.6645  13.05$  14.85$  13.16$
|161>   Q  0.6645  11.75$  15.45$  13.86$
|162>   Q  -1.3290  12.4$  15.41$  13.28$
|163>   Q  0.6645  5.2$  6.58$  3.5$
|164>   Q  0.6645  6.5$  6.99$  3.97$
|165>   Q  -1.3290  5.69$  7.11$  3.93$
|166>   Q  0.6645  10.23$  19.59$  8.32$
|167>   Q  0.6645  10.61$  19.4$  6.87$
|168>   Q  -1.3290  10.1$  19.56$  7.51$
|169>   Q  0.6645  17.16$  4.5$  16.14$
|170>   Q  0.6645  16.23$  4.17$  14.93$
|171>   Q  -1.3290  16.8$  4.61$  15.32$
|172>   Q  0.6645  9.14$  4.15$  15.77$
|173>   Q  0.6645  8.85$  3.1$  16.91$
|174>   Q  -1.3290  9.29$  3.52$  16.31$
|175>   Q  0.6645  4.26$  15.85$  16.59$
|176>   Q  0.6645  4.31$  15.1$  15.3$
|177>   Q  -1.3290  3.94$  15.35$  15.99$
|178>   Q  0.6645  9.8$  17.32$  4.7$
|179>   Q  0.6645  8.62$  16.8$  3.69$
|180>   Q  -1.3290  9.23$  16.76$  4.34$
|181>   Q  0.6645  6.14$  15.46$  8.28$
|182>   Q  0.6645  5$  14.46$  8.8$
|183>   Q  -1.3290  5.49$  14.9$  8.22$
|184>   Q  0.6645  19.39$  11.35$  8.22$
|185>   Q  0.6645  18.74$  12.63$  8.83$
|186>   Q  -1.3290  18.88$  11.78$  8.77$
|187>   Q  0.6645  17.75$  5.61$  11.04$
|188>   Q  0.6645  16.37$  5.17$  11.26$
|189>   Q  -1.3290  16.99$  5.72$  11.28$
|190>   Q  0.6645  17.57$  7.46$  14.67$
|191>   Q  0.6645  17.63$  7.93$  16.06$
|192>   Q  -1.3290  17.67$  8.03$  15.23$
|193>   Q  0.6645  14.83$  4.18$  9.4$
|194>   Q  0.6645  13.9$  3.76$  8.24$
|195>   Q  -1.3290  14.48$  4.22$  8.63$
|196>   Q  0.6645  2.41$  10.73$  8.43$
|197>   Q  0.6645  1.69$  10.24$  9.7$
|198>   Q  -1.3290  1.73$  10.49$  8.9$
|199>   Q  0.6645  8.89$  17.37$  16.15$
|200>   Q  0.6645  9.79$  17.23$  14.93$
|201>   Q  -1.3290  9.55$  17.07$  15.68$
|202>   Q  0.6645  11.32$  21.86$  11.34$
|203>   Q  0.6645  10.36$  20.97$  10.56$
|204>   Q  -1.3290  10.98$  21.52$  10.65$
|205>   Q  0.6645  3.63$  10.71$  11.37$
|206>   Q  0.6645  2.69$  10.3$  12.53$
|207>   Q  -1.3290  2.96$  10.79$  11.86$
|208>   Q  0.6645  14.97$  12.87$  17.81$
|209>   Q  0.6645  15.07$  11.55$  16.95$
|210>   Q  -1.3290  15.28$  12.37$  17.2$
|211>   Q  0.6645  16.1$  15.39$  4.87$
|212>   Q  0.6645  15.11$  15.34$  3.7$
|213>   Q  -1.3290  15.35$  15.4$  4.52$
|214>   Q  0.6645  13.71$  14.46$  19.99$
|215>   Q  0.6645  15.29$  14.21$  20.1$
|216>   Q  -1.3290  14.53$  14.38$  19.7$
|217>   Q  0.6645  5.91$  11.13$  13.26$
|218>   Q  0.6645  6.02$  11.8$  11.83$
|219>   Q  -1.3290  6.27$  11.34$  12.5$
|220>   Q  0.6645  6.93$  21.77$  12.88$
|221>   Q  0.6645  8.22$  21.1$  13.46$
|222>   Q  -1.3290  7.38$  21.16$  13.27$
|223>   Q  0.6645  2.58$  13.82$  13.22$
|224>   Q  0.6645  3$  12.5$  12.52$
|225>   Q  -1.3290  3.02$  13.13$  13.11$
|226>   Q  0.6645  20.27$  17.25$  15.58$
|227>   Q  0.6645  19.54$  15.84$  15.72$
|228>   Q  -1.3290  19.63$  16.67$  15.49$
|229>   Q  0.6645  10.86$  5.11$  18.32$
|230>   Q  0.6645  10.64$  6.64$  17.92$
|231>   Q  -1.3290  10.51$  5.89$  18.34$
|232>   Q  0.6645  11.7$  19.49$  14.25$
|233>   Q  0.6645  11.86$  18.91$  12.89$
|234>   Q  -1.3290  11.51$  18.98$  13.64$
|235>   Q  0.6645  4.63$  14.22$  13.48$
|236>   Q  0.6645  5.45$  15.58$  13.53$
|237>   Q  -1.3290  5.22$  14.8$  13.76$
|238>   Q  0.6645  0.28$  11.29$  6.36$
|239>   Q  0.6645  1.52$  11.68$  5.61$
|240>   Q  -1.3290  0.86$  11.83$  6.11$
|241>   Q  0.6645  2.39$  8.8$  14.46$
|242>   Q  0.6645  1.23$  8.53$  13.48$
|243>   Q  -1.3290  2.04$  8.78$  13.69$
|244>   Q  0.6645  18.99$  13.24$  16.03$
|245>   Q  0.6645  20.14$  12.14$  15.92$
|246>   Q  -1.3290  19.51$  12.6$  16.29$
|247>   Q  0.6645  6.86$  1.42$  7.68$
|248>   Q  0.6645  5.83$  2.48$  7.41$
|249>   Q  -1.3290  6.13$  1.85$  7.83$
|250>   Q  0.6645  6.34$  15$  3.06$
|251>   Q  0.6645  6.27$  16.03$  4.21$
|252>   Q  -1.3290  6.07$  15.34$  3.77$
|253>   Q  0.6645  12.22$  11.6$  2.42$
|254>   Q  0.6645  11.12$  12.61$  2.39$
|255>   Q  -1.3290  11.81$  12.25$  2.1$
|256>   Q  0.6645  3.98$  8.08$  15.57$
|257>   Q  0.6645  4.14$  9.64$  15.32$
|258>   Q  -1.3290  3.84$  8.92$  15.71$
|259>   Q  0.6645  11.76$  2.66$  4.59$
|260>   Q  0.6645  11.15$  4.01$  4.42$
|261>   Q  -1.3290  11.43$  3.38$  4.87$
|262>   Q  0.6645  20.26$  6.84$  10.33$
|263>   Q  0.6645  20.62$  5.53$  11.1$
|264>   Q  -1.3290  20.18$  6.03$  10.54$
|265>   Q  0.6645  17.24$  16.74$  20.05$
|266>   Q  0.6645  15.8$  16.48$  19.84$
|267>   Q  -1.3290  16.46$  16.83$  20.24$
|268>   Q  0.6645  7.12$  5.95$  18.35$
|269>   Q  0.6645  8.48$  5.28$  17.84$
|270>   Q  -1.3290  7.71$  5.71$  17.78$
|271>   Q  0.6645  4.5$  11.55$  7.17$
|272>   Q  0.6645  4.39$  10.16$  7.82$
|273>   Q  -1.3290  4.45$  10.99$  7.83$
|274>   Q  0.6645  16.81$  6.59$  5.47$
|275>   Q  0.6645  15.8$  5.52$  6.07$
|276>   Q  -1.3290  16.46$  6.09$  6.07$
|277>   Q  0.6645  12.11$  18.08$  5.99$
|278>   Q  0.6645  11.66$  18.97$  4.95$
|279>   Q  -1.3290  11.54$  18.5$  5.58$
|280>   Q  0.6645  17.7$  16.29$  8.62$
|281>   Q  0.6645  18.8$  17$  9.32$
|282>   Q  -1.3290  18.07$  16.96$  8.93$
|283>   Q  0.6645  4.54$  5.8$  16$
|284>   Q  0.6645  3.4$  5.88$  14.94$
|285>   Q  -1.3290  4.08$  6.15$  15.36$
|286>   Q  0.6645  12.72$  21.14$  16.23$
|287>   Q  0.6645  12.54$  19.48$  16.13$
|288>   Q  -1.3290  12.31$  20.37$  16.16$
|289>   Q  0.6645  18.91$  5.03$  14.82$
|290>   Q  0.6645  19.94$  4.28$  15.62$
|291>   Q  -1.3290  19.66$  4.9$  15.12$
|292>   Q  0.6645  4.75$  7.77$  11.9$
|293>   Q  0.6645  3.26$  8.43$  11.95$
|294>   Q  -1.3290  3.97$  8.05$  11.58$
|295>   Q  0.6645  15.48$  1.71$  14.53$
|296>   Q  0.6645  14.2$  2.58$  14.95$
|297>   Q  -1.3290  15.04$  2.39$  14.81$
|298>   Q  0.6645  11.86$  15.06$  5.24$
|299>   Q  0.6645  10.67$  14.89$  6.32$
|300>   Q  -1.3290  11.49$  14.81$  5.99$
|301>   Q  0.6645  16$  20.07$  14.8$
|302>   Q  0.6645  16.35$  18.64$  14.32$
|303>   Q  -1.3290  16.02$  19.25$  14.86$
|304>   Q  0.6645  13.25$  16.93$  16.17$
|305>   Q  0.6645  14.09$  17.94$  15.32$
|306>   Q  -1.3290  13.51$  17.7$  15.94$
|307>   Q  0.6645  1.69$  8.54$  8.35$
|308>   Q  0.6645  1.43$  6.95$  8.23$
|309>   Q  -1.3290  1.61$  7.76$  7.95$
|310>   Q  0.6645  20.94$  10.84$  11.78$
|311>   Q  0.6645  22.5$  11.2$  12.01$
|312>   Q  -1.3290  21.67$  11.04$  12.21$
|313>   Q  0.6645  8.51$  15.99$  19.21$
|314>   Q  0.6645  9.42$  15.1$  19.97$
|315>   Q  -1.3290  8.75$  15.26$  19.56$
|316>   Q  0.6645  7.4$  3.48$  8.61$
|317>   Q  0.6645  8.62$  4.2$  9.04$
|318>   Q  -1.3290  7.98$  4.03$  8.54$
|319>   Q  0.6645  4.36$  5.5$  6.71$
|320>   Q  0.6645  5.08$  6.68$  5.92$
|321>   Q  -1.3290  4.47$  6.3$  6.43$
|322>   Q  0.6645  5.66$  14.04$  0.64$
|323>   Q  0.6645  5.96$  13.09$  1.72$
|324>   Q  -1.3290  6.06$  13.81$  1.34$
|325>   Q  0.6645  13.9$  14.74$  17.45$
|326>   Q  0.6645  12.88$  14.17$  16.51$
|327>   Q  -1.3290  13.49$  14.7$  16.74$
|328>   Q  0.6645  2.09$  13.84$  6.27$
|329>   Q  0.6645  3.59$  14.02$  6.2$
|330>   Q  -1.3290  2.79$  14.25$  6.07$
|331>   Q  0.6645  9.79$  7.01$  20.44$
|332>   Q  0.6645  9.49$  5.58$  21.04$
|333>   Q  -1.3290  9.6$  6.44$  21.04$
|334>   Q  0.6645  10.45$  11.89$  20.63$
|335>   Q  0.6645  10.95$  11.59$  22.09$
|336>   Q  -1.3290  10.59$  11.4$  21.35$
|337>   Q  0.6645  9.21$  12.91$  4.25$
|338>   Q  0.6645  9.59$  14.33$  4.01$
|339>   Q  -1.3290  9.6$  13.52$  3.83$
|340>   Q  0.6645  2.87$  15.09$  3.91$
|341>   Q  0.6645  4.03$  15.97$  4.07$
|342>   Q  -1.3290  3.29$  15.81$  3.81$
|343>   Q  0.6645  15.64$  3.13$  11.63$
|344>   Q  0.6645  14.2$  3.81$  11.72$
|345>   Q  -1.3290  15.02$  3.69$  11.43$
|346>   Q  0.6645  14.6$  22.01$  12.4$
|347>   Q  0.6645  14.32$  20.55$  12.97$
|348>   Q  -1.3290  14.36$  21.39$  12.95$
|349>   Q  0.6645  3.91$  16.69$  8.28$
|350>   Q  0.6645  2.69$  17.24$  8.99$
|351>   Q  -1.3290  3.44$  16.89$  8.96$
|352>   Q  0.6645  4.73$  17.73$  10.39$
|353>   Q  0.6645  5.42$  17.94$  11.76$
|354>   Q  -1.3290  5.17$  18.15$  10.99$
|355>   Q  0.6645  5.37$  3.59$  13.02$
|356>   Q  0.6645  4.38$  2.57$  13.73$
|357>   Q  -1.3290  4.63$  3.32$  13.4$
|358>   Q  0.6645  12.48$  0.69$  13.31$
|359>   Q  0.6645  11.9$  2.05$  12.86$
|360>   Q  -1.3290  11.89$  1.22$  12.99$
|361>   Q  0.6645  11.29$  3.13$  15.77$
|362>   Q  0.6645  12.52$  3.97$  15.71$
|363>   Q  -1.3290  12.1$  3.22$  15.65$
|364>   Q  0.6645  13.9$  17.09$  7.31$
|365>   Q  0.6645  14.33$  16.63$  5.95$
|366>   Q  -1.3290  14.1$  17.22$  6.49$
|367>   Q  0.6645  12.11$  4.27$  13.33$
|368>   Q  0.6645  11.75$  4.26$  11.86$
|369>   Q  -1.3290  12.18$  4.01$  12.54$
|370>   Q  0.6645  3.76$  3.02$  7.87$
|371>   Q  0.6645  4.65$  4.26$  8.59$
|372>   Q  -1.3290  3.99$  3.87$  8.12$
|373>   Q  0.6645  7.63$  7.05$  10.77$
|374>   Q  0.6645  8.7$  5.83$  10.77$
|375>   Q  -1.3290  7.93$  6.23$  10.8$
|376>   Q  0.6645  20.96$  7.21$  13.77$
|377>   Q  0.6645  20.77$  8.71$  14.06$
|378>   Q  -1.3290  21.03$  8.04$  13.62$
|379>   Q  0.6645  7.74$  16.32$  9.72$
|380>   Q  0.6645  8.18$  16.22$  8.32$
|381>   Q  -1.3290  7.66$  16.42$  8.92$
|382>   Q  0.6645  17.75$  9.37$  20.24$
|383>   Q  0.6645  18.45$  9.99$  19.05$
|384>   Q  -1.3290  17.86$  9.53$  19.42$
|385>   Q  0.6645  2.28$  7.79$  6.08$
|386>   Q  0.6645  3.01$  7.12$  5.09$
|387>   Q  -1.3290  2.51$  7.74$  5.3$
|388>   Q  0.6645  8.41$  11.94$  22$
|389>   Q  0.6645  7.26$  13.13$  21.93$
|390>   Q  -1.3290  7.8$  12.48$  21.63$
|391>   Q  0.6645  13.48$  9.91$  3.93$
|392>   Q  0.6645  12.75$  10.91$  4.93$
|393>   Q  -1.3290  13$  10.58$  4.17$
|394>   Q  0.6645  17.87$  16.78$  16.85$
|395>   Q  0.6645  17.31$  17.35$  18.17$
|396>   Q  -1.3290  17.68$  16.78$  17.69$
|397>   Q  0.6645  5.9$  0.49$  10.7$
|398>   Q  0.6645  6.06$  2.01$  11.03$
|399>   Q  -1.3290  6.22$  1.18$  11.08$
|400>   Q  0.6645  6.79$  17.79$  17.01$
|401>   Q  0.6645  7$  19.01$  16.05$
|402>   Q  -1.3290  7.18$  18.23$  16.4$
|403>   Q  0.6645  8.51$  15.13$  0.03$
|404>   Q  0.6645  9.38$  14.58$  1.14$
|405>   Q  -1.3290  9.06$  15.17$  0.66$
|406>   Q  0.6645  8.57$  10.07$  2.37$
|407>   Q  0.6645  7.89$  9.5$  1.11$
|408>   Q  -1.3290  8.09$  10.09$  1.69$
|409>   Q  0.6645  14.47$  10.26$  -0.01$
|410>   Q  0.6645  13.4$  9.23$  -0.5$
|411>   Q  -1.3290  14$  9.53$  0.02$
|412>   Q  0.6645  3.59$  6.32$  10.92$
|413>   Q  0.6645  2.75$  5.1$  10.63$
|414>   Q  -1.3290  3.43$  5.52$  10.83$
|415>   Q  0.6645  12.86$  16.98$  3.5$
|416>   Q  0.6645  11.35$  16.84$  3.31$
|417>   Q  -1.3290  12.13$  16.55$  3.5$
|418>   Q  0.6645  13.5$  6.15$  15.16$
|419>   Q  0.6645  12.42$  6.55$  16.2$
|420>   Q  -1.3290  12.91$  6.03$  15.75$
|421>   Q  0.6645  14.81$  15.46$  15.38$
|422>   Q  0.6645  16.36$  15.18$  15.02$
|423>   Q  -1.3290  15.58$  15.6$  15.02$
|424>   Q  0.6645  7.24$  13.88$  19.21$
|425>   Q  0.6645  5.67$  13.87$  19.53$
|426>   Q  -1.3290  6.38$  13.84$  19.01$
|427>   Q  0.6645  14.59$  11.67$  3.93$
|428>   Q  0.6645  15.1$  13.08$  3.34$
|429>   Q  -1.3290  15.17$  12.26$  3.64$
|430>   Q  0.6645  7.29$  18.15$  8.07$
|431>   Q  0.6645  8.23$  19$  7.14$
|432>   Q  -1.3290  7.5$  18.64$  7.39$
|433>   Q  0.6645  5.83$  21.44$  7.62$
|434>   Q  0.6645  6.21$  19.92$  7.62$
|435>   Q  -1.3290  5.7$  20.61$  7.78$
|436>   Q  0.6645  12.61$  15.39$  1.76$
|437>   Q  0.6645  12.63$  13.89$  1.41$
|438>   Q  -1.3290  12.85$  14.72$  1.32$
|439>   Q  0.6645  9.81$  1.84$  12.14$
|440>   Q  0.6645  8.39$  1.35$  11.65$
|441>   Q  -1.3290  9$  1.67$  12.21$
|442>   Q  0.6645  13.36$  17.45$  12.51$
|443>   Q  0.6645  14.54$  18.01$  11.63$
|444>   Q  -1.3290  13.75$  18.05$  12.02$
|445>   Q  0.6645  14.08$  8.61$  1.95$
|446>   Q  0.6645  13.64$  7.88$  3.31$
|447>   Q  -1.3290  14.12$  8.36$  2.78$
|448>   Q  0.6645  17.93$  13.73$  14.04$
|449>   Q  0.6645  17.28$  13.1$  15.25$
|450>   Q  -1.3290  17.57$  13.75$  14.8$
|451>   Q  0.6645  6.97$  17.5$  2.03$
|452>   Q  0.6645  8.25$  16.64$  1.58$
|453>   Q  -1.3290  7.81$  17.27$  2$
|454>   Q  0.6645  21$  14.25$  10.5$
|455>   Q  0.6645  20.7$  15.65$  11.07$
|456>   Q  -1.3290  20.62$  14.81$  11.01$
|457>   Q  0.6645  4.26$  8.04$  9.22$
|458>   Q  0.6645  4.41$  7.57$  7.79$
|459>   Q  -1.3290  4.52$  8.1$  8.42$
|460>   Q  0.6645  9.7$  18.39$  13.3$
|461>   Q  0.6645  8.45$  18.94$  12.63$
|462>   Q  -1.3290  8.88$  18.38$  13.08$
|463>   Q  0.6645  11.1$  16.92$  17.77$
|464>   Q  0.6645  10.73$  18.02$  18.77$
|465>   Q  -1.3290  11.06$  17.28$  18.52$
|466>   Q  0.6645  11.92$  8.42$  19.42$
|467>   Q  0.6645  13.3$  9.14$  18.91$
|468>   Q  -1.3290  12.78$  8.62$  19.38$
|469>   Q  0.6645  16.23$  11.82$  20.97$
|470>   Q  0.6645  16.15$  10.89$  19.91$
|471>   Q  -1.3290  16.02$  11.08$  20.68$
|472>   Q  0.6645  22.06$  12.23$  15.03$
|473>   Q  0.6645  21.65$  11.23$  14.14$
|474>   Q  -1.3290  21.67$  11.57$  14.88$
|475>   Q  0.6645  7.41$  5.42$  2.95$
|476>   Q  0.6645  8.1$  5.83$  4.34$
|477>   Q  -1.3290  7.97$  5.83$  3.47$
|478>   Q  0.6645  6.35$  6.28$  12.53$
|479>   Q  0.6645  5.15$  6.4$  13.53$
|480>   Q  -1.3290  5.8$  6.69$  13.02$
|481>   Q  0.6645  4.85$  12.27$  9.7$
|482>   Q  0.6645  4.3$  13.15$  10.79$
|483>   Q  -1.3290  4.92$  12.73$  10.4$
|484>   Q  0.6645  5.66$  13.64$  6.64$
|485>   Q  0.6645  5.59$  13.4$  5.1$
|486>   Q  -1.3290  5.54$  13.15$  5.9$
|487>   Q  0.6645  16.31$  19.01$  16.82$
|488>   Q  0.6645  16.31$  20.12$  17.88$
|489>   Q  -1.3290  16.33$  19.32$  17.62$
|490>   Q  0.6645  4.98$  3.66$  5.55$
|491>   Q  0.6645  6.38$  4.14$  5.7$
|492>   Q  -1.3290  5.76$  3.63$  5.85$
|493>   Q  0.6645  10.76$  5.13$  9.98$
|494>   Q  0.6645  10.39$  3.62$  10.03$
|495>   Q  -1.3290  10.31$  4.45$  10.25$
|496>   Q  0.6645  12.91$  18.07$  18.78$
|497>   Q  0.6645  14.37$  18.56$  18.37$
|498>   Q  -1.3290  13.72$  18.29$  18.89$
|499>   Q  0.6645  17.26$  8.08$  18.25$
|500>   Q  0.6645  16.21$  7.02$  17.88$
|501>   Q  -1.3290  16.91$  7.46$  17.79$
|502>   Q  0.6645  13.32$  19.32$  10.2$
|503>   Q  0.6645  12.42$  20.29$  9.44$
|504>   Q  -1.3290  13.1$  19.8$  9.56$
|505>   Q  0.6645  8.61$  14$  14.98$
|506>   Q  0.6645  9.05$  15.13$  15.88$
|507>   Q  -1.3290  8.93$  14.32$  15.68$
|508>   Q  0.6645  17.89$  17.4$  12.34$
|509>   Q  0.6645  18.25$  17.16$  13.77$
|510>   Q  -1.3290  18.02$  17.62$  13.13$
|511>   Q  0.6645  18.83$  12.43$  12.33$
|512>   Q  0.6645  19.31$  13.84$  12.14$
|513>   Q  -1.3290  18.74$  13.29$  12.35$
|514>   Q  0.6645  9.99$  5.61$  2.9$
|515>   Q  0.6645  11.58$  5.64$  2.42$
|516>   Q  -1.3290  10.88$  5.56$  2.96$
|517>   Q  0.6645  7.68$  7.34$  1.91$
|518>   Q  0.6645  8.02$  6.93$  0.4$
|519>   Q  -1.3290  7.69$  7.41$  1.04$
|520>   Q  0.6645  14.05$  6.84$  13.17$
|521>   Q  0.6645  15.37$  6.26$  13.88$
|522>   Q  -1.3290  14.65$  6.73$  13.84$
|523>   Q  0.6645  14.88$  20.27$  8.74$
|524>   Q  0.6645  16.05$  19.8$  7.78$
|525>   Q  -1.3290  15.55$  20.37$  8.19$
|526>   Q  0.6645  7.66$  20.37$  11.63$
|527>   Q  0.6645  7.02$  19.31$  10.85$
|528>   Q  -1.3290  7.63$  19.85$  11.01$
|529>   Q  0.6645  10.42$  9.51$  0.46$
|530>   Q  0.6645  10.06$  7.99$  0.47$
|531>   Q  -1.3290  10.41$  8.71$  0.78$
|532>   Q  0.6645  10.25$  12.39$  18.51$
|533>   Q  0.6645  11.16$  13.56$  18.91$
|534>   Q  -1.3290  10.85$  12.79$  18.96$
|535>   Q  0.6645  0.32$  13.8$  8.42$
|536>   Q  0.6645  0.52$  12.49$  9.16$
|537>   Q  -1.3290  0.48$  13.32$  9.07$
|538>   Q  0.6645  12.23$  14.87$  21.19$
|539>   Q  0.6645  11.74$  15.88$  20.1$
|540>   Q  -1.3290  11.86$  15.11$  20.45$
|541>   Q  0.6645  2.04$  14.07$  9.81$
|542>   Q  0.6645  3.05$  15.14$  9.81$
|543>   Q  -1.3290  2.74$  14.41$  10.05$
|544>   Q  0.6645  10.44$  8.83$  3.14$
|545>   Q  0.6645  9.33$  8.25$  3.94$
|546>   Q  -1.3290  9.8$  8.87$  3.7$
|547>   Q  0.6645  10.62$  1.46$  9.51$
|548>   Q  0.6645  11.3$  2.42$  8.49$
|549>   Q  -1.3290  10.67$  2.15$  9.02$
|550>   Q  0.6645  17.67$  14.25$  8.93$
|551>   Q  0.6645  18.99$  14.43$  9.87$
|552>   Q  -1.3290  18.53$  14.31$  9.12$
|553>   Q  0.6645  6.63$  10.66$  4.27$
|554>   Q  0.6645  5.88$  9.52$  4.58$
|555>   Q  -1.3290  6.52$  10.01$  4.7$
|556>   Q  0.6645  19.76$  5.99$  16.68$
|557>   Q  0.6645  18.68$  6.38$  17.67$
|558>   Q  -1.3290  19.41$  6.07$  17.43$
|559>   Q  0.6645  9.19$  -0.16$  7.4$
|560>   Q  0.6645  9.26$  1.36$  7.89$
|561>   Q  -1.3290  8.92$  0.65$  7.48$
|562>   Q  0.6645  8.08$  4.51$  13.49$
|563>   Q  0.6645  7.96$  3.04$  13.03$
|564>   Q  -1.3290  7.69$  3.74$  13.41$
|565>   Q  0.6645  5.39$  17.95$  13.93$
|566>   Q  0.6645  6.76$  17.37$  14.14$
|567>   Q  -1.3290  6.02$  17.47$  13.73$
|568>   Q  0.6645  6.24$  18.9$  4.08$
|569>   Q  0.6645  6.81$  18.5$  5.46$
|570>   Q  -1.3290  6.36$  18.39$  4.75$
|571>   Q  0.6645  12.88$  10.91$  17.09$
|572>   Q  0.6645  13.83$  9.9$  16.36$
|573>   Q  -1.3290  13.36$  10.2$  17$
|574>   Q  0.6645  16.09$  9.87$  7.17$
|575>   Q  0.6645  16.77$  10.86$  8.18$
|576>   Q  -1.3290  16.4$  10.6$  7.46$
|577>   Q  0.6645  7.38$  11.11$  19.87$
|578>   Q  0.6645  6.88$  9.71$  19.53$
|579>   Q  -1.3290  7.32$  10.4$  19.37$
|580>   Q  0.6645  4.83$  17.48$  5.99$
|581>   Q  0.6645  3.6$  16.58$  6.18$
|582>   Q  -1.3290  4.07$  17.26$  6.35$
|583>   Q  0.6645  5.81$  15.68$  18.12$
|584>   Q  0.6645  5.4$  17.09$  18.89$
|585>   Q  -1.3290  5.53$  16.53$  18.2$
|586>   Q  0.6645  17.03$  10.98$  0.98$
|587>   Q  0.6645  16.61$  10.74$  2.45$
|588>   Q  -1.3290  17.15$  10.79$  1.8$
|589>   Q  0.6645  14.61$  20.33$  5.76$
|590>   Q  0.6645  14.4$  18.8$  5.57$
|591>   Q  -1.3290  14.57$  19.6$  5.31$
|592>   Q  0.6645  18.45$  9.88$  11.69$
|593>   Q  0.6645  18.66$  10.78$  10.49$
|594>   Q  -1.3290  18.78$  10.53$  11.3$
|595>   Q  0.6645  2.95$  10.08$  4.77$
|596>   Q  0.6645  3.51$  11.51$  4.37$
|597>   Q  -1.3290  2.92$  10.93$  4.6$
|598>   Q  0.6645  10.16$  15.91$  10.91$
|599>   Q  0.6645  11.48$  15.94$  11.37$
|600>   Q  -1.3290  10.93$  16.08$  10.79$
|601>   Q  0.6645  16.37$  3.6$  7.66$
|602>   Q  0.6645  17.98$  3.57$  7.38$
|603>   Q  -1.3290  17.2$  3.32$  7.66$
|604>   Q  0.6645  4.9$  3.64$  15.93$
|605>   Q  0.6645  6.06$  4.27$  16.9$
|606>   Q  -1.3290  5.33$  3.88$  16.66$
|607>   Q  0.6645  17.91$  19.26$  6.76$
|608>   Q  0.6645  17.4$  18.21$  7.77$
|609>   Q  -1.3290  17.33$  18.72$  7.07$
|610>   Q  0.6645  8.58$  7.25$  17.36$
|611>   Q  0.6645  8.03$  8.56$  16.68$
|612>   Q  -1.3290  8.44$  8.09$  17.28$
|613>   Q  0.6645  20.43$  11.28$  19.29$
|614>   Q  0.6645  19.55$  11.99$  18.24$
|615>   Q  -1.3290  19.71$  11.6$  19$
|616>   Q  0.6645  6.11$  11.07$  17.8$
|617>   Q  0.6645  5.92$  12.56$  17.74$
|618>   Q  -1.3290  5.83$  11.79$  17.49$
|619>   Q  0.6645  10.23$  9.57$  20.11$
|620>   Q  0.6645  9.48$  8.98$  18.92$
|621>   Q  -1.3290  10.04$  8.96$  19.56$
|622>   Q  0.6645  4.92$  10.94$  2.4$
|623>   Q  0.6645  6.4$  10.99$  2.15$
|624>   Q  -1.3290  5.69$  11.26$  2.5$
|625>   Q  0.6645  13.65$  3.84$  5.02$
|626>   Q  0.6645  14.82$  4.45$  4.11$
|627>   Q  -1.3290  14.42$  4.2$  4.81$
|628>   Q  0.6645  16.4$  6.54$  3.28$
|629>   Q  0.6645  16.01$  7.96$  3.74$
|630>   Q  -1.3290  16.51$  7.28$  3.64$
|631>   Q  0.6645  13.53$  6.74$  18.66$
|632>   Q  0.6645  13.99$  5.65$  17.59$
|633>   Q  -1.3290  14.04$  6.16$  18.28$
|634>   Q  0.6645  8.39$  6.31$  15.21$
|635>   Q  0.6645  9.22$  6.58$  13.98$
|636>   Q  -1.3290  8.82$  6.09$  14.54$
|637>   Q  0.6645  16.95$  12.37$  4.69$
|638>   Q  0.6645  17.46$  11.59$  5.86$
|639>   Q  -1.3290  17.49$  12.2$  5.27$
|640>   Q  0.6645  9.57$  1.15$  3.22$
|641>   Q  0.6645  9.72$  2.03$  4.35$
|642>   Q  -1.3290  9.54$  1.33$  4$
|643> *
|644> 
|645>                          ****END OF INPUT****
================================================================================

                     *******************************
                     * Energy+Gradient Calculation *
                     *******************************

---------------------------------
CARTESIAN COORDINATES (ANGSTROEM)
---------------------------------
  C     11.490000   11.060000   12.030000
  H     12.320000   10.680000   11.470000
  H     10.810000   10.240000   12.250000
  C     10.620000   12.220000   11.450000
  H      9.940000   12.620000   12.230000
  H     11.450000   12.930000   11.250000
  C      9.750000   11.870000   10.170000
  H      9.870000   12.730000    9.530000
  H      8.690000   11.940000   10.290000
  C     10.230000   10.710000    9.370000
  H     11.250000   10.880000    9.090000
  H      9.640000   10.670000    8.440000
  O     10.020000    9.470000   10.000000
  H     10.450000    8.810000    9.440000
  O     11.990000   11.510000   13.290000
  H     13.040000   11.500000   13.280000
  O     14.940000   11.480000   12.870000
  H     14.850000   10.790000   12.200000
  H     15.380000   11.040000   13.560000
  O     10.090000    7.420000    8.050000
  H     10.840000    7.860000    7.700000
  H      9.280000    7.880000    7.730000
  O      9.930000    9.870000   14.960000
  H      9.460000   10.440000   15.550000
  H     10.850000   10.200000   14.830000
  O     13.800000   14.050000    9.870000
  H     13.050000   14.550000    9.540000
  H     14.020000   14.530000   10.710000
  O     14.500000    9.690000   10.840000
  H     14.040000    8.840000   10.960000
  H     14.040000   10.180000   10.140000
  O     12.170000    5.950000    9.280000
  H     13.020000    5.580000    8.930000
  H     11.800000    6.460000    8.540000
  O     12.500000    7.900000    7.260000
  H     13.390000    7.930000    7.650000
  H     12.670000    7.850000    6.300000
  O      8.540000   15.710000   11.670000
  H      8.200000   15.020000   12.240000
  H      8.550000   16.460000   12.300000
  O      7.910000    5.850000    6.040000
  H      7.740000    6.720000    6.400000
  H      8.160000    5.360000    6.850000
  O     10.290000    9.980000    6.280000
  H     10.980000   10.670000    6.280000
  H      9.840000    9.970000    5.390000
  O     14.920000    9.530000   15.030000
  H     14.820000    8.650000   14.740000
  H     15.890000    9.590000   15.120000
  O      7.230000    8.240000    7.040000
  H      7.220000    9.020000    6.420000
  H      6.700000    8.510000    7.750000
  O     14.000000   11.590000    8.730000
  H     14.150000   12.340000    9.320000
  H     14.800000   11.690000    8.170000
  O     12.300000   11.830000    6.450000
  H     12.920000   11.830000    7.210000
  H     12.280000   12.830000    6.340000
  O     16.040000   14.660000    8.370000
  H     15.320000   14.290000    8.920000
  H     15.580000   14.890000    7.540000
  O     11.740000   12.830000   15.680000
  H     11.950000   12.340000   14.900000
  H     10.800000   12.830000   15.850000
  O     10.260000    7.860000   12.940000
  H      9.550000    8.160000   12.350000
  H     10.150000    8.490000   13.680000
  O     16.740000    8.610000   10.070000
  H     16.890000    7.900000   10.660000
  H     15.950000    9.040000   10.440000
  O      8.010000    9.230000   11.510000
  H      7.150000    9.660000   11.520000
  H      8.570000    9.520000   10.770000
  O     12.620000   16.260000    8.450000
  H     12.230000   15.770000    7.760000
  H     11.840000   16.540000    9.030000
  O     12.910000    7.490000   11.470000
  H     12.750000    6.920000   10.710000
  H     12.020000    7.720000   11.790000
  O      8.450000   12.240000    5.700000
  H      7.570000   11.940000    5.880000
  H      8.920000   11.530000    6.170000
  O      8.940000   11.520000   17.150000
  H      8.470000   12.310000   16.970000
  H      8.480000   11.020000   17.840000
  O     11.430000    7.970000   16.960000
  H     10.840000    8.450000   16.410000
  H     11.920000    8.720000   17.270000
  O     17.200000   15.590000   11.330000
  H     16.210000   15.580000   11.320000
  H     17.480000   14.880000   11.900000
  O      7.660000   13.550000   13.500000
  H      7.410000   12.720000   13.060000
  H      6.820000   13.980000   13.760000
  O     14.680000   14.230000   12.530000
  H     15.150000   14.550000   13.280000
  H     14.930000   13.310000   12.490000
  O      7.030000    8.750000   14.980000
  H      6.600000    8.100000   14.440000
  H      7.640000    9.140000   14.370000
  O     17.230000   11.030000   15.070000
  H     17.400000   11.220000   16.010000
  H     17.770000   10.240000   14.830000
  Q     15.410000    7.460000    7.300000
  Q     15.550000    8.270000    8.620000
  Q     15.230000    8.070000    7.850000
  Q      3.220000   13.620000   16.490000
  Q      3.600000   12.130000   16.610000
  Q      3.070000   12.800000   16.640000
  Q     13.010000    1.800000    7.290000
  Q     11.940000    3.000000    6.940000
  Q     12.570000    2.540000    7.380000
  Q     11.860000    6.940000    4.180000
  Q     11.480000    8.260000    4.850000
  Q     12.000000    7.680000    4.500000
  Q     18.400000    5.520000    7.040000
  Q     19.130000    5.390000    8.400000
  Q     19.060000    5.400000    7.580000
  Q     10.610000   18.090000   10.030000
  Q      9.340000   19.020000   10.400000
  Q     10.180000   18.790000   10.230000
  Q      4.210000   12.010000   14.310000
  Q      5.370000   11.600000   15.320000
  Q      4.760000   11.490000   14.740000
  Q      4.930000    4.320000   10.670000
  Q      6.450000    4.550000   10.330000
  Q      5.750000    4.090000   10.510000
  Q      8.710000   15.470000    6.040000
  Q      8.400000   14.090000    6.580000
  Q      8.760000   14.880000    6.610000
  Q     16.510000   17.790000   10.180000
  Q     15.960000   19.100000   10.650000
  Q     15.950000   18.260000   10.540000
  Q     13.050000   14.850000   13.160000
  Q     11.750000   15.450000   13.860000
  Q     12.400000   15.410000   13.280000
  Q      5.200000    6.580000    3.500000
  Q      6.500000    6.990000    3.970000
  Q      5.690000    7.110000    3.930000
  Q     10.230000   19.590000    8.320000
  Q     10.610000   19.400000    6.870000
  Q     10.100000   19.560000    7.510000
  Q     17.160000    4.500000   16.140000
  Q     16.230000    4.170000   14.930000
  Q     16.800000    4.610000   15.320000
  Q      9.140000    4.150000   15.770000
  Q      8.850000    3.100000   16.910000
  Q      9.290000    3.520000   16.310000
  Q      4.260000   15.850000   16.590000
  Q      4.310000   15.100000   15.300000
  Q      3.940000   15.350000   15.990000
  Q      9.800000   17.320000    4.700000
  Q      8.620000   16.800000    3.690000
  Q      9.230000   16.760000    4.340000
  Q      6.140000   15.460000    8.280000
  Q      5.000000   14.460000    8.800000
  Q      5.490000   14.900000    8.220000
  Q     19.390000   11.350000    8.220000
  Q     18.740000   12.630000    8.830000
  Q     18.880000   11.780000    8.770000
  Q     17.750000    5.610000   11.040000
  Q     16.370000    5.170000   11.260000
  Q     16.990000    5.720000   11.280000
  Q     17.570000    7.460000   14.670000
  Q     17.630000    7.930000   16.060000
  Q     17.670000    8.030000   15.230000
  Q     14.830000    4.180000    9.400000
  Q     13.900000    3.760000    8.240000
  Q     14.480000    4.220000    8.630000
  Q      2.410000   10.730000    8.430000
  Q      1.690000   10.240000    9.700000
  Q      1.730000   10.490000    8.900000
  Q      8.890000   17.370000   16.150000
  Q      9.790000   17.230000   14.930000
  Q      9.550000   17.070000   15.680000
  Q     11.320000   21.860000   11.340000
  Q     10.360000   20.970000   10.560000
  Q     10.980000   21.520000   10.650000
  Q      3.630000   10.710000   11.370000
  Q      2.690000   10.300000   12.530000
  Q      2.960000   10.790000   11.860000
  Q     14.970000   12.870000   17.810000
  Q     15.070000   11.550000   16.950000
  Q     15.280000   12.370000   17.200000
  Q     16.100000   15.390000    4.870000
  Q     15.110000   15.340000    3.700000
  Q     15.350000   15.400000    4.520000
  Q     13.710000   14.460000   19.990000
  Q     15.290000   14.210000   20.100000
  Q     14.530000   14.380000   19.700000
  Q      5.910000   11.130000   13.260000
  Q      6.020000   11.800000   11.830000
  Q      6.270000   11.340000   12.500000
  Q      6.930000   21.770000   12.880000
  Q      8.220000   21.100000   13.460000
  Q      7.380000   21.160000   13.270000
  Q      2.580000   13.820000   13.220000
  Q      3.000000   12.500000   12.520000
  Q      3.020000   13.130000   13.110000
  Q     20.270000   17.250000   15.580000
  Q     19.540000   15.840000   15.720000
  Q     19.630000   16.670000   15.490000
  Q     10.860000    5.110000   18.320000
  Q     10.640000    6.640000   17.920000
  Q     10.510000    5.890000   18.340000
  Q     11.700000   19.490000   14.250000
  Q     11.860000   18.910000   12.890000
  Q     11.510000   18.980000   13.640000
  Q      4.630000   14.220000   13.480000
  Q      5.450000   15.580000   13.530000
  Q      5.220000   14.800000   13.760000
  Q      0.280000   11.290000    6.360000
  Q      1.520000   11.680000    5.610000
  Q      0.860000   11.830000    6.110000
  Q      2.390000    8.800000   14.460000
  Q      1.230000    8.530000   13.480000
  Q      2.040000    8.780000   13.690000
  Q     18.990000   13.240000   16.030000
  Q     20.140000   12.140000   15.920000
  Q     19.510000   12.600000   16.290000
  Q      6.860000    1.420000    7.680000
  Q      5.830000    2.480000    7.410000
  Q      6.130000    1.850000    7.830000
  Q      6.340000   15.000000    3.060000
  Q      6.270000   16.030000    4.210000
  Q      6.070000   15.340000    3.770000
  Q     12.220000   11.600000    2.420000
  Q     11.120000   12.610000    2.390000
  Q     11.810000   12.250000    2.100000
  Q      3.980000    8.080000   15.570000
  Q      4.140000    9.640000   15.320000
  Q      3.840000    8.920000   15.710000
  Q     11.760000    2.660000    4.590000
  Q     11.150000    4.010000    4.420000
  Q     11.430000    3.380000    4.870000
  Q     20.260000    6.840000   10.330000
  Q     20.620000    5.530000   11.100000
  Q     20.180000    6.030000   10.540000
  Q     17.240000   16.740000   20.050000
  Q     15.800000   16.480000   19.840000
  Q     16.460000   16.830000   20.240000
  Q      7.120000    5.950000   18.350000
  Q      8.480000    5.280000   17.840000
  Q      7.710000    5.710000   17.780000
  Q      4.500000   11.550000    7.170000
  Q      4.390000   10.160000    7.820000
  Q      4.450000   10.990000    7.830000
  Q     16.810000    6.590000    5.470000
  Q     15.800000    5.520000    6.070000
  Q     16.460000    6.090000    6.070000
  Q     12.110000   18.080000    5.990000
  Q     11.660000   18.970000    4.950000
  Q     11.540000   18.500000    5.580000
  Q     17.700000   16.290000    8.620000
  Q     18.800000   17.000000    9.320000
  Q     18.070000   16.960000    8.930000
  Q      4.540000    5.800000   16.000000
  Q      3.400000    5.880000   14.940000
  Q      4.080000    6.150000   15.360000
  Q     12.720000   21.140000   16.230000
  Q     12.540000   19.480000   16.130000
  Q     12.310000   20.370000   16.160000
  Q     18.910000    5.030000   14.820000
  Q     19.940000    4.280000   15.620000
  Q     19.660000    4.900000   15.120000
  Q      4.750000    7.770000   11.900000
  Q      3.260000    8.430000   11.950000
  Q      3.970000    8.050000   11.580000
  Q     15.480000    1.710000   14.530000
  Q     14.200000    2.580000   14.950000
  Q     15.040000    2.390000   14.810000
  Q     11.860000   15.060000    5.240000
  Q     10.670000   14.890000    6.320000
  Q     11.490000   14.810000    5.990000
  Q     16.000000   20.070000   14.800000
  Q     16.350000   18.640000   14.320000
  Q     16.020000   19.250000   14.860000
  Q     13.250000   16.930000   16.170000
  Q     14.090000   17.940000   15.320000
  Q     13.510000   17.700000   15.940000
  Q      1.690000    8.540000    8.350000
  Q      1.430000    6.950000    8.230000
  Q      1.610000    7.760000    7.950000
  Q     20.940000   10.840000   11.780000
  Q     22.500000   11.200000   12.010000
  Q     21.670000   11.040000   12.210000
  Q      8.510000   15.990000   19.210000
  Q      9.420000   15.100000   19.970000
  Q      8.750000   15.260000   19.560000
  Q      7.400000    3.480000    8.610000
  Q      8.620000    4.200000    9.040000
  Q      7.980000    4.030000    8.540000
  Q      4.360000    5.500000    6.710000
  Q      5.080000    6.680000    5.920000
  Q      4.470000    6.300000    6.430000
  Q      5.660000   14.040000    0.640000
  Q      5.960000   13.090000    1.720000
  Q      6.060000   13.810000    1.340000
  Q     13.900000   14.740000   17.450000
  Q     12.880000   14.170000   16.510000
  Q     13.490000   14.700000   16.740000
  Q      2.090000   13.840000    6.270000
  Q      3.590000   14.020000    6.200000
  Q      2.790000   14.250000    6.070000
  Q      9.790000    7.010000   20.440000
  Q      9.490000    5.580000   21.040000
  Q      9.600000    6.440000   21.040000
  Q     10.450000   11.890000   20.630000
  Q     10.950000   11.590000   22.090000
  Q     10.590000   11.400000   21.350000
  Q      9.210000   12.910000    4.250000
  Q      9.590000   14.330000    4.010000
  Q      9.600000   13.520000    3.830000
  Q      2.870000   15.090000    3.910000
  Q      4.030000   15.970000    4.070000
  Q      3.290000   15.810000    3.810000
  Q     15.640000    3.130000   11.630000
  Q     14.200000    3.810000   11.720000
  Q     15.020000    3.690000   11.430000
  Q     14.600000   22.010000   12.400000
  Q     14.320000   20.550000   12.970000
  Q     14.360000   21.390000   12.950000
  Q      3.910000   16.690000    8.280000
  Q      2.690000   17.240000    8.990000
  Q      3.440000   16.890000    8.960000
  Q      4.730000   17.730000   10.390000
  Q      5.420000   17.940000   11.760000
  Q      5.170000   18.150000   10.990000
  Q      5.370000    3.590000   13.020000
  Q      4.380000    2.570000   13.730000
  Q      4.630000    3.320000   13.400000
  Q     12.480000    0.690000   13.310000
  Q     11.900000    2.050000   12.860000
  Q     11.890000    1.220000   12.990000
  Q     11.290000    3.130000   15.770000
  Q     12.520000    3.970000   15.710000
  Q     12.100000    3.220000   15.650000
  Q     13.900000   17.090000    7.310000
  Q     14.330000   16.630000    5.950000
  Q     14.100000   17.220000    6.490000
  Q     12.110000    4.270000   13.330000
  Q     11.750000    4.260000   11.860000
  Q     12.180000    4.010000   12.540000
  Q      3.760000    3.020000    7.870000
  Q      4.650000    4.260000    8.590000
  Q      3.990000    3.870000    8.120000
  Q      7.630000    7.050000   10.770000
  Q      8.700000    5.830000   10.770000
  Q      7.930000    6.230000   10.800000
  Q     20.960000    7.210000   13.770000
  Q     20.770000    8.710000   14.060000
  Q     21.030000    8.040000   13.620000
  Q      7.740000   16.320000    9.720000
  Q      8.180000   16.220000    8.320000
  Q      7.660000   16.420000    8.920000
  Q     17.750000    9.370000   20.240000
  Q     18.450000    9.990000   19.050000
  Q     17.860000    9.530000   19.420000
  Q      2.280000    7.790000    6.080000
  Q      3.010000    7.120000    5.090000
  Q      2.510000    7.740000    5.300000
  Q      8.410000   11.940000   22.000000
  Q      7.260000   13.130000   21.930000
  Q      7.800000   12.480000   21.630000
  Q     13.480000    9.910000    3.930000
  Q     12.750000   10.910000    4.930000
  Q     13.000000   10.580000    4.170000
  Q     17.870000   16.780000   16.850000
  Q     17.310000   17.350000   18.170000
  Q     17.680000   16.780000   17.690000
  Q      5.900000    0.490000   10.700000
  Q      6.060000    2.010000   11.030000
  Q      6.220000    1.180000   11.080000
  Q      6.790000   17.790000   17.010000
  Q      7.000000   19.010000   16.050000
  Q      7.180000   18.230000   16.400000
  Q      8.510000   15.130000    0.030000
  Q      9.380000   14.580000    1.140000
  Q      9.060000   15.170000    0.660000
  Q      8.570000   10.070000    2.370000
  Q      7.890000    9.500000    1.110000
  Q      8.090000   10.090000    1.690000
  Q     14.470000   10.260000   -0.010000
  Q     13.400000    9.230000   -0.500000
  Q     14.000000    9.530000    0.020000
  Q      3.590000    6.320000   10.920000
  Q      2.750000    5.100000   10.630000
  Q      3.430000    5.520000   10.830000
  Q     12.860000   16.980000    3.500000
  Q     11.350000   16.840000    3.310000
  Q     12.130000   16.550000    3.500000
  Q     13.500000    6.150000   15.160000
  Q     12.420000    6.550000   16.200000
  Q     12.910000    6.030000   15.750000
  Q     14.810000   15.460000   15.380000
  Q     16.360000   15.180000   15.020000
  Q     15.580000   15.600000   15.020000
  Q      7.240000   13.880000   19.210000
  Q      5.670000   13.870000   19.530000
  Q      6.380000   13.840000   19.010000
  Q     14.590000   11.670000    3.930000
  Q     15.100000   13.080000    3.340000
  Q     15.170000   12.260000    3.640000
  Q      7.290000   18.150000    8.070000
  Q      8.230000   19.000000    7.140000
  Q      7.500000   18.640000    7.390000
  Q      5.830000   21.440000    7.620000
  Q      6.210000   19.920000    7.620000
  Q      5.700000   20.610000    7.780000
  Q     12.610000   15.390000    1.760000
  Q     12.630000   13.890000    1.410000
  Q     12.850000   14.720000    1.320000
  Q      9.810000    1.840000   12.140000
  Q      8.390000    1.350000   11.650000
  Q      9.000000    1.670000   12.210000
  Q     13.360000   17.450000   12.510000
  Q     14.540000   18.010000   11.630000
  Q     13.750000   18.050000   12.020000
  Q     14.080000    8.610000    1.950000
  Q     13.640000    7.880000    3.310000
  Q     14.120000    8.360000    2.780000
  Q     17.930000   13.730000   14.040000
  Q     17.280000   13.100000   15.250000
  Q     17.570000   13.750000   14.800000
  Q      6.970000   17.500000    2.030000
  Q      8.250000   16.640000    1.580000
  Q      7.810000   17.270000    2.000000
  Q     21.000000   14.250000   10.500000
  Q     20.700000   15.650000   11.070000
  Q     20.620000   14.810000   11.010000
  Q      4.260000    8.040000    9.220000
  Q      4.410000    7.570000    7.790000
  Q      4.520000    8.100000    8.420000
  Q      9.700000   18.390000   13.300000
  Q      8.450000   18.940000   12.630000
  Q      8.880000   18.380000   13.080000
  Q     11.100000   16.920000   17.770000
  Q     10.730000   18.020000   18.770000
  Q     11.060000   17.280000   18.520000
  Q     11.920000    8.420000   19.420000
  Q     13.300000    9.140000   18.910000
  Q     12.780000    8.620000   19.380000
  Q     16.230000   11.820000   20.970000
  Q     16.150000   10.890000   19.910000
  Q     16.020000   11.080000   20.680000
  Q     22.060000   12.230000   15.030000
  Q     21.650000   11.230000   14.140000
  Q     21.670000   11.570000   14.880000
  Q      7.410000    5.420000    2.950000
  Q      8.100000    5.830000    4.340000
  Q      7.970000    5.830000    3.470000
  Q      6.350000    6.280000   12.530000
  Q      5.150000    6.400000   13.530000
  Q      5.800000    6.690000   13.020000
  Q      4.850000   12.270000    9.700000
  Q      4.300000   13.150000   10.790000
  Q      4.920000   12.730000   10.400000
  Q      5.660000   13.640000    6.640000
  Q      5.590000   13.400000    5.100000
  Q      5.540000   13.150000    5.900000
  Q     16.310000   19.010000   16.820000
  Q     16.310000   20.120000   17.880000
  Q     16.330000   19.320000   17.620000
  Q      4.980000    3.660000    5.550000
  Q      6.380000    4.140000    5.700000
  Q      5.760000    3.630000    5.850000
  Q     10.760000    5.130000    9.980000
  Q     10.390000    3.620000   10.030000
  Q     10.310000    4.450000   10.250000
  Q     12.910000   18.070000   18.780000
  Q     14.370000   18.560000   18.370000
  Q     13.720000   18.290000   18.890000
  Q     17.260000    8.080000   18.250000
  Q     16.210000    7.020000   17.880000
  Q     16.910000    7.460000   17.790000
  Q     13.320000   19.320000   10.200000
  Q     12.420000   20.290000    9.440000
  Q     13.100000   19.800000    9.560000
  Q      8.610000   14.000000   14.980000
  Q      9.050000   15.130000   15.880000
  Q      8.930000   14.320000   15.680000
  Q     17.890000   17.400000   12.340000
  Q     18.250000   17.160000   13.770000
  Q     18.020000   17.620000   13.130000
  Q     18.830000   12.430000   12.330000
  Q     19.310000   13.840000   12.140000
  Q     18.740000   13.290000   12.350000
  Q      9.990000    5.610000    2.900000
  Q     11.580000    5.640000    2.420000
  Q     10.880000    5.560000    2.960000
  Q      7.680000    7.340000    1.910000
  Q      8.020000    6.930000    0.400000
  Q      7.690000    7.410000    1.040000
  Q     14.050000    6.840000   13.170000
  Q     15.370000    6.260000   13.880000
  Q     14.650000    6.730000   13.840000
  Q     14.880000   20.270000    8.740000
  Q     16.050000   19.800000    7.780000
  Q     15.550000   20.370000    8.190000
  Q      7.660000   20.370000   11.630000
  Q      7.020000   19.310000   10.850000
  Q      7.630000   19.850000   11.010000
  Q     10.420000    9.510000    0.460000
  Q     10.060000    7.990000    0.470000
  Q     10.410000    8.710000    0.780000
  Q     10.250000   12.390000   18.510000
  Q     11.160000   13.560000   18.910000
  Q     10.850000   12.790000   18.960000
  Q      0.320000   13.800000    8.420000
  Q      0.520000   12.490000    9.160000
  Q      0.480000   13.320000    9.070000
  Q     12.230000   14.870000   21.190000
  Q     11.740000   15.880000   20.100000
  Q     11.860000   15.110000   20.450000
  Q      2.040000   14.070000    9.810000
  Q      3.050000   15.140000    9.810000
  Q      2.740000   14.410000   10.050000
  Q     10.440000    8.830000    3.140000
  Q      9.330000    8.250000    3.940000
  Q      9.800000    8.870000    3.700000
  Q     10.620000    1.460000    9.510000
  Q     11.300000    2.420000    8.490000
  Q     10.670000    2.150000    9.020000
  Q     17.670000   14.250000    8.930000
  Q     18.990000   14.430000    9.870000
  Q     18.530000   14.310000    9.120000
  Q      6.630000   10.660000    4.270000
  Q      5.880000    9.520000    4.580000
  Q      6.520000   10.010000    4.700000
  Q     19.760000    5.990000   16.680000
  Q     18.680000    6.380000   17.670000
  Q     19.410000    6.070000   17.430000
  Q      9.190000   -0.160000    7.400000
  Q      9.260000    1.360000    7.890000
  Q      8.920000    0.650000    7.480000
  Q      8.080000    4.510000   13.490000
  Q      7.960000    3.040000   13.030000
  Q      7.690000    3.740000   13.410000
  Q      5.390000   17.950000   13.930000
  Q      6.760000   17.370000   14.140000
  Q      6.020000   17.470000   13.730000
  Q      6.240000   18.900000    4.080000
  Q      6.810000   18.500000    5.460000
  Q      6.360000   18.390000    4.750000
  Q     12.880000   10.910000   17.090000
  Q     13.830000    9.900000   16.360000
  Q     13.360000   10.200000   17.000000
  Q     16.090000    9.870000    7.170000
  Q     16.770000   10.860000    8.180000
  Q     16.400000   10.600000    7.460000
  Q      7.380000   11.110000   19.870000
  Q      6.880000    9.710000   19.530000
  Q      7.320000   10.400000   19.370000
  Q      4.830000   17.480000    5.990000
  Q      3.600000   16.580000    6.180000
  Q      4.070000   17.260000    6.350000
  Q      5.810000   15.680000   18.120000
  Q      5.400000   17.090000   18.890000
  Q      5.530000   16.530000   18.200000
  Q     17.030000   10.980000    0.980000
  Q     16.610000   10.740000    2.450000
  Q     17.150000   10.790000    1.800000
  Q     14.610000   20.330000    5.760000
  Q     14.400000   18.800000    5.570000
  Q     14.570000   19.600000    5.310000
  Q     18.450000    9.880000   11.690000
  Q     18.660000   10.780000   10.490000
  Q     18.780000   10.530000   11.300000
  Q      2.950000   10.080000    4.770000
  Q      3.510000   11.510000    4.370000
  Q      2.920000   10.930000    4.600000
  Q     10.160000   15.910000   10.910000
  Q     11.480000   15.940000   11.370000
  Q     10.930000   16.080000   10.790000
  Q     16.370000    3.600000    7.660000
  Q     17.980000    3.570000    7.380000
  Q     17.200000    3.320000    7.660000
  Q      4.900000    3.640000   15.930000
  Q      6.060000    4.270000   16.900000
  Q      5.330000    3.880000   16.660000
  Q     17.910000   19.260000    6.760000
  Q     17.400000   18.210000    7.770000
  Q     17.330000   18.720000    7.070000
  Q      8.580000    7.250000   17.360000
  Q      8.030000    8.560000   16.680000
  Q      8.440000    8.090000   17.280000
  Q     20.430000   11.280000   19.290000
  Q     19.550000   11.990000   18.240000
  Q     19.710000   11.600000   19.000000
  Q      6.110000   11.070000   17.800000
  Q      5.920000   12.560000   17.740000
  Q      5.830000   11.790000   17.490000
  Q     10.230000    9.570000   20.110000
  Q      9.480000    8.980000   18.920000
  Q     10.040000    8.960000   19.560000
  Q      4.920000   10.940000    2.400000
  Q      6.400000   10.990000    2.150000
  Q      5.690000   11.260000    2.500000
  Q     13.650000    3.840000    5.020000
  Q     14.820000    4.450000    4.110000
  Q     14.420000    4.200000    4.810000
  Q     16.400000    6.540000    3.280000
  Q     16.010000    7.960000    3.740000
  Q     16.510000    7.280000    3.640000
  Q     13.530000    6.740000   18.660000
  Q     13.990000    5.650000   17.590000
  Q     14.040000    6.160000   18.280000
  Q      8.390000    6.310000   15.210000
  Q      9.220000    6.580000   13.980000
  Q      8.820000    6.090000   14.540000
  Q     16.950000   12.370000    4.690000
  Q     17.460000   11.590000    5.860000
  Q     17.490000   12.200000    5.270000
  Q      9.570000    1.150000    3.220000
  Q      9.720000    2.030000    4.350000
  Q      9.540000    1.330000    4.000000

----------------------------
CARTESIAN COORDINATES (A.U.)
----------------------------
  NO LB      ZA    FRAG     MASS         X           Y           Z
   0 C     6.0000    0    12.011   21.712953   20.900371   22.733405
   1 H     1.0000    0     1.008   23.281426   20.182275   21.675159
   2 H     1.0000    0     1.008   20.427940   19.350796   23.149145
   3 C     6.0000    0    12.011   20.068892   23.092453   21.637364
   4 H     1.0000    0     1.008   18.783878   23.848344   23.111351
   5 H     1.0000    0     1.008   21.637364   24.434159   21.259419
   6 C     6.0000    0    12.011   18.424830   22.431049   19.218515
   7 H     1.0000    0     1.008   18.651597   24.056214   18.009090
   8 H     1.0000    0     1.008   16.421720   22.563330   19.445282
   9 C     6.0000    0    12.011   19.331898   20.238967   17.706734
  10 H     1.0000    0     1.008   21.259419   20.560220   17.177611
  11 H     1.0000    0     1.008   18.216960   20.163378   15.949289
  12 O     8.0000    0    15.999   18.935056   17.895706   18.897261
  13 H     1.0000    0     1.008   19.747638   16.648487   17.839015
  14 O     8.0000    0    15.999   22.657816   21.750748   25.114460
  15 H     1.0000    0     1.008   24.642029   21.731851   25.095563
  16 O     8.0000    0    15.999   28.232508   21.694056   24.320775
  17 H     1.0000    0     1.008   28.062433   20.390145   23.054659
  18 H     1.0000    0     1.008   29.063988   20.862577   25.624686
  19 O     8.0000    0    15.999   19.067337   14.021768   15.212295
  20 H     1.0000    0     1.008   20.484631   14.853247   14.550891
  21 H     1.0000    0     1.008   17.536659   14.891042   14.607583
  22 O     8.0000    0    15.999   18.764981   18.651597   28.270303
  23 H     1.0000    0     1.008   17.876809   19.728741   29.385241
  24 H     1.0000    0     1.008   20.503529   19.275207   28.024639
  25 O     8.0000    0    15.999   26.078221   26.550652   18.651597
  26 H     1.0000    0     1.008   24.660926   27.495515   18.027987
  27 H     1.0000    0     1.008   26.493960   27.457721   20.238967
  28 O     8.0000    0    15.999   27.401029   18.311446   20.484631
  29 H     1.0000    0     1.008   26.531755   16.705179   20.711398
  30 H     1.0000    0     1.008   26.531755   19.237412   19.161823
  31 O     8.0000    0    15.999   22.997967   11.243870   17.536659
  32 H     1.0000    0     1.008   24.604234   10.544672   16.875254
  33 H     1.0000    0     1.008   22.298768   12.207631   16.138261
  34 O     8.0000    0    15.999   23.621577   14.928836   13.719412
  35 H     1.0000    0     1.008   25.303433   14.985528   14.456405
  36 H     1.0000    0     1.008   23.942830   14.834350   11.905275
  37 O     8.0000    0    15.999   16.138261   29.687598   22.053104
  38 H     1.0000    0     1.008   15.495754   28.383687   23.130248
  39 H     1.0000    0     1.008   16.157158   31.104892   23.243631
  40 O     8.0000    0    15.999   14.947734   11.054898   11.413946
  41 H     1.0000    0     1.008   14.626480   12.698960   12.094247
  42 H     1.0000    0     1.008   15.420165   10.128932   12.944624
  43 O     8.0000    0    15.999   19.445282   18.859467   11.867480
  44 H     1.0000    0     1.008   20.749193   20.163378   11.867480
  45 H     1.0000    0     1.008   18.594905   18.840570   10.185624
  46 O     8.0000    0    15.999   28.194714   18.009090   28.402584
  47 H     1.0000    0     1.008   28.005741   16.346131   27.854563
  48 H     1.0000    0     1.008   30.027748   18.122474   28.572659
  49 O     8.0000    0    15.999   13.662720   15.571343   13.303672
  50 H     1.0000    0     1.008   13.643823   17.045330   12.132042
  51 H     1.0000    0     1.008   12.661165   16.081569   14.645378
  52 O     8.0000    0    15.999   26.456166   21.901926   16.497309
  53 H     1.0000    0     1.008   26.739625   23.319220   17.612248
  54 H     1.0000    0     1.008   27.967947   22.090899   15.439063
  55 O     8.0000    0    15.999   23.243631   22.355460   12.188734
  56 H     1.0000    0     1.008   24.415262   22.355460   13.624925
  57 H     1.0000    0     1.008   23.205837   24.245186   11.980864
  58 O     8.0000    0    15.999   30.311207   27.703385   15.817008
  59 H     1.0000    0     1.008   28.950604   27.004186   16.856357
  60 H     1.0000    0     1.008   29.441933   28.138022   14.248535
  61 O     8.0000    0    15.999   22.185385   24.245186   29.630906
  62 H     1.0000    0     1.008   22.582227   23.319220   28.156919
  63 H     1.0000    0     1.008   20.409042   24.245186   29.952159
  64 O     8.0000    0    15.999   19.388590   14.853247   24.453056
  65 H     1.0000    0     1.008   18.046885   15.420165   23.338118
  66 H     1.0000    0     1.008   19.180720   16.043775   25.851454
  67 O     8.0000    0    15.999   31.634015   16.270542   19.029542
  68 H     1.0000    0     1.008   31.917474   14.928836   20.144481
  69 H     1.0000    0     1.008   30.141132   17.083124   19.728741
  70 O     8.0000    0    15.999   15.136706   17.442172   21.750748
  71 H     1.0000    0     1.008   13.511542   18.254754   21.769645
  72 H     1.0000    0     1.008   16.194953   17.990193   20.352350
  73 O     8.0000    0    15.999   23.848344   30.726947   15.968186
  74 H     1.0000    0     1.008   23.111351   29.800981   14.664275
  75 H     1.0000    0     1.008   22.374357   31.256070   17.064227
  76 O     8.0000    0    15.999   24.396364   14.154049   21.675159
  77 H     1.0000    0     1.008   24.094008   13.076905   20.238967
  78 H     1.0000    0     1.008   22.714508   14.588686   22.279871
  79 O     8.0000    0    15.999   15.968186   23.130248   10.771439
  80 H     1.0000    0     1.008   14.305227   22.563330   11.111590
  81 H     1.0000    0     1.008   16.856357   21.788542   11.659610
  82 O     8.0000    0    15.999   16.894152   21.769645   32.408803
  83 H     1.0000    0     1.008   16.005980   23.262529   32.068652
  84 H     1.0000    0     1.008   16.024878   20.824782   33.712714
  85 O     8.0000    0    15.999   21.599570   15.061117   32.049755
  86 H     1.0000    0     1.008   20.484631   15.968186   31.010406
  87 H     1.0000    0     1.008   22.525536   16.478412   32.635570
  88 O     8.0000    0    15.999   32.503290   29.460830   21.410597
  89 H     1.0000    0     1.008   30.632461   29.441933   21.391700
  90 H     1.0000    0     1.008   33.032413   28.119125   22.487741
  91 O     8.0000    0    15.999   14.475302   25.605789   25.511303
  92 H     1.0000    0     1.008   14.002871   24.037316   24.679823
  93 H     1.0000    0     1.008   12.887932   26.418371   26.002632
  94 O     8.0000    0    15.999   27.741180   26.890803   23.678268
  95 H     1.0000    0     1.008   28.629351   27.495515   25.095563
  96 H     1.0000    0     1.008   28.213611   25.152255   23.602679
  97 O     8.0000    0    15.999   13.284775   16.535104   28.308097
  98 H     1.0000    0     1.008   12.472192   15.306782   27.287645
  99 H     1.0000    0     1.008   14.437508   17.272097   27.155365
 100 O     8.0000    0    15.999   32.559981   20.843679   28.478173
 101 H     1.0000    0     1.008   32.881235   21.202727   30.254515
 102 H     1.0000    0     1.008   33.580433   19.350796   28.024639
 103 Q     0.6645    0     0.000   29.120680   14.097357   13.795001
 104 Q     0.6645    0     0.000   29.385241   15.628035   16.289439
 105 Q    -1.3290    0     0.000   28.780529   15.250090   14.834350
 106 Q     0.6645    0     0.000    6.084918   25.738070   31.161584
 107 Q     0.6645    0     0.000    6.803014   22.922378   31.388351
 108 Q    -1.3290    0     0.000    5.801459   24.188495   31.445043
 109 Q     0.6645    0     0.000   24.585337    3.401507   13.776104
 110 Q     0.6645    0     0.000   22.563330    5.669178   13.114699
 111 Q    -1.3290    0     0.000   23.753858    4.799904   13.946179
 112 Q     0.6645    0     0.000   22.412152   13.114699    7.899055
 113 Q     0.6645    0     0.000   21.694056   15.609138    9.165172
 114 Q    -1.3290    0     0.000   22.676714   14.513097    8.503768
 115 Q     0.6645    0     0.000   34.770961   10.431288   13.303672
 116 Q     0.6645    0     0.000   36.150461   10.185624   15.873700
 117 Q    -1.3290    0     0.000   36.018180   10.204521   14.324124
 118 Q     0.6645    0     0.000   20.049994   34.185146   18.953953
 119 Q     0.6645    0     0.000   17.650042   35.942591   19.653152
 120 Q    -1.3290    0     0.000   19.237412   35.507954   19.331898
 121 Q     0.6645    0     0.000    7.955747   22.695611   27.041981
 122 Q     0.6645    0     0.000   10.147829   21.920823   28.950604
 123 Q    -1.3290    0     0.000    8.995096   21.712953   27.854563
 124 Q     0.6645    0     0.000    9.316350    8.163617   20.163378
 125 Q     0.6645    0     0.000   12.188734    8.598254   19.520871
 126 Q    -1.3290    0     0.000   10.865925    7.728980   19.861022
 127 Q     0.6645    0     0.000   16.459515   29.234063   11.413946
 128 Q     0.6645    0     0.000   15.873700   26.626241   12.434398
 129 Q    -1.3290    0     0.000   16.554001   28.119125   12.491090
 130 Q     0.6645    0     0.000   31.199378   33.618228   19.237412
 131 Q     0.6645    0     0.000   30.160029   36.093769   20.125583
 132 Q    -1.3290    0     0.000   30.141132   34.506399   19.917713
 133 Q     0.6645    0     0.000   24.660926   28.062433   24.868796
 134 Q     0.6645    0     0.000   22.204282   29.196269   26.191604
 135 Q    -1.3290    0     0.000   23.432604   29.120680   25.095563
 136 Q     0.6645    0     0.000    9.826576   12.434398    6.614041
 137 Q     0.6645    0     0.000   12.283220   13.209186    7.502213
 138 Q    -1.3290    0     0.000   10.752542   13.435953    7.426624
 139 Q     0.6645    0     0.000   19.331898   37.019735   15.722521
 140 Q     0.6645    0     0.000   20.049994   36.660687   12.982419
 141 Q    -1.3290    0     0.000   19.086234   36.963043   14.191843
 142 Q     0.6645    0     0.000   32.427700    8.503768   30.500180
 143 Q     0.6645    0     0.000   30.670255    7.880158   28.213611
 144 Q    -1.3290    0     0.000   31.747399    8.711637   28.950604
 145 Q     0.6645    0     0.000   17.272097    7.842363   29.800981
 146 Q     0.6645    0     0.000   16.724076    5.858151   31.955269
 147 Q    -1.3290    0     0.000   17.555556    6.651836   30.821433
 148 Q     0.6645    0     0.000    8.050233   29.952159   31.350557
 149 Q     0.6645    0     0.000    8.144720   28.534865   28.912810
 150 Q    -1.3290    0     0.000    7.445521   29.007296   30.216721
 151 Q     0.6645    0     0.000   18.519316   32.730057    8.881713
 152 Q     0.6645    0     0.000   16.289439   31.747399    6.973089
 153 Q    -1.3290    0     0.000   17.442172   31.671810    8.201411
 154 Q     0.6645    0     0.000   11.602918   29.215166   15.646932
 155 Q     0.6645    0     0.000    9.448631   27.325440   16.629590
 156 Q    -1.3290    0     0.000   10.374596   28.156919   15.533549
 157 Q     0.6645    0     0.000   36.641790   21.448392   15.533549
 158 Q     0.6645    0     0.000   35.413468   23.867241   16.686282
 159 Q    -1.3290    0     0.000   35.678029   22.260974   16.572898
 160 Q     0.6645    0     0.000   33.542639   10.601364   20.862577
 161 Q     0.6645    0     0.000   30.934817    9.769884   21.278316
 162 Q    -1.3290    0     0.000   32.106447   10.809233   21.316111
 163 Q     0.6645    0     0.000   33.202488   14.097357   27.722282
 164 Q     0.6645    0     0.000   33.315872   14.985528   30.349002
 165 Q    -1.3290    0     0.000   33.391461   15.174501   28.780529
 166 Q     0.6645    0     0.000   28.024639    7.899055   17.763426
 167 Q     0.6645    0     0.000   26.267193    7.105370   15.571343
 168 Q    -1.3290    0     0.000   27.363234    7.974644   16.308337
 169 Q     0.6645    0     0.000    4.554240   20.276761   15.930391
 170 Q     0.6645    0     0.000    3.193637   19.350796   18.330343
 171 Q    -1.3290    0     0.000    3.269226   19.823227   16.818563
 172 Q     0.6645    0     0.000   16.799665   32.824543   30.519077
 173 Q     0.6645    0     0.000   18.500419   32.559981   28.213611
 174 Q    -1.3290    0     0.000   18.046885   32.257625   29.630906
 175 Q     0.6645    0     0.000   21.391700   41.309413   21.429494
 176 Q     0.6645    0     0.000   19.577563   39.627557   19.955508
 177 Q    -1.3290    0     0.000   20.749193   40.666906   20.125583
 178 Q     0.6645    0     0.000    6.859706   20.238967   21.486186
 179 Q     0.6645    0     0.000    5.083363   19.464179   23.678268
 180 Q    -1.3290    0     0.000    5.593589   20.390145   22.412152
 181 Q     0.6645    0     0.000   28.289200   24.320775   33.656022
 182 Q     0.6645    0     0.000   28.478173   21.826337   32.030858
 183 Q    -1.3290    0     0.000   28.875015   23.375912   32.503290
 184 Q     0.6645    0     0.000   30.424591   29.082885    9.202966
 185 Q     0.6645    0     0.000   28.553762   28.988399    6.991987
 186 Q    -1.3290    0     0.000   29.007296   29.101782    8.541562
 187 Q     0.6645    0     0.000   25.908145   27.325440   37.775625
 188 Q     0.6645    0     0.000   28.893913   26.853008   37.983495
 189 Q    -1.3290    0     0.000   27.457721   27.174262   37.227605
 190 Q     0.6645    0     0.000   11.168281   21.032652   25.057769
 191 Q     0.6645    0     0.000   11.376151   22.298768   22.355460
 192 Q    -1.3290    0     0.000   11.848583   21.429494   23.621577
 193 Q     0.6645    0     0.000   13.095802   41.139338   24.339673
 194 Q     0.6645    0     0.000   15.533549   39.873221   25.435714
 195 Q    -1.3290    0     0.000   13.946179   39.986605   25.076666
 196 Q     0.6645    0     0.000    4.875493   26.116015   24.982179
 197 Q     0.6645    0     0.000    5.669178   23.621577   23.659371
 198 Q    -1.3290    0     0.000    5.706973   24.812104   24.774310
 199 Q     0.6645    0     0.000   38.304749   32.597776   29.441933
 200 Q     0.6645    0     0.000   36.925249   29.933262   29.706495
 201 Q    -1.3290    0     0.000   37.095324   31.501735   29.271858
 202 Q     0.6645    0     0.000   20.522426    9.656501   34.619783
 203 Q     0.6645    0     0.000   20.106686   12.547782   33.863892
 204 Q    -1.3290    0     0.000   19.861022   11.130487   34.657577
 205 Q     0.6645    0     0.000   22.109796   36.830762   26.928597
 206 Q     0.6645    0     0.000   22.412152   35.734721   24.358570
 207 Q    -1.3290    0     0.000   21.750748   35.867002   25.775864
 208 Q     0.6645    0     0.000    8.749432   26.871906   25.473508
 209 Q     0.6645    0     0.000   10.299007   29.441933   25.567995
 210 Q    -1.3290    0     0.000    9.864370   27.967947   26.002632
 211 Q     0.6645    0     0.000    0.529123   21.335008   12.018658
 212 Q     0.6645    0     0.000    2.872384   22.072001   10.601364
 213 Q    -1.3290    0     0.000    1.625164   22.355460   11.546227
 214 Q     0.6645    0     0.000    4.516445   16.629590   27.325440
 215 Q     0.6645    0     0.000    2.324363   16.119364   25.473508
 216 Q    -1.3290    0     0.000    3.855041   16.591795   25.870351
 217 Q     0.6645    0     0.000   35.885899   25.019974   30.292310
 218 Q     0.6645    0     0.000   38.059084   22.941275   30.084440
 219 Q    -1.3290    0     0.000   36.868557   23.810549   30.783639
 220 Q     0.6645    0     0.000   12.963521    2.683411   14.513097
 221 Q     0.6645    0     0.000   11.017103    4.686521   14.002871
 222 Q    -1.3290    0     0.000   11.584021    3.495993   14.796556
 223 Q     0.6645    0     0.000   11.980864   28.345892    5.782562
 224 Q     0.6645    0     0.000   11.848583   30.292310    7.955747
 225 Q    -1.3290    0     0.000   11.470638   28.988399    7.124268
[...]
 326   Q   :   -0.136965479   -0.149904662   -0.175894379
 327   Q   :    0.082682218   -0.084448395    0.270763779
 328   Q   :    0.046951431    0.237113602   -0.096985799
 329   Q   :    0.220196842    0.070788944   -0.114410989
 330   Q   :   -0.077032155   -0.259095714    0.115158429
 331   Q   :   -0.148581938    0.188075625   -0.005290043
 332   Q   :    0.216566109   -0.168596826    0.105820542
 333   Q   :    0.015445084    0.279281140   -0.046741580
 334   Q   :   -0.232427166   -0.123528426   -0.053522156
 335   Q   :   -0.287628670   -0.013038214    0.042989109
 336   Q   :    0.124072628    0.233427395    0.014975207
 337   Q   :    0.163484238   -0.234458833   -0.057573914
 338   Q   :   -0.057108019   -0.060572683    0.252183935
 339   Q   :    0.072669087   -0.218109403   -0.175022354
 340   Q   :   -0.006024735    0.271068221   -0.064478816
 341   Q   :   -0.031524470    0.101456694    0.271092436
 342   Q   :   -0.144059519    0.091561066   -0.222317468
 343   Q   :    0.176856057   -0.182555067   -0.044417145
 344   Q   :   -0.057514725   -0.232430979   -0.071454042
 345   Q   :    0.189200882    0.108165252    0.124042195
 346   Q   :   -0.136454005    0.122404558   -0.052175308
 347   Q   :   -0.087900704    0.251675866   -0.012907124
 348   Q   :    0.244311204   -0.109792612   -0.011168719
 349   Q   :   -0.154694741   -0.138389911    0.019915719
 350   Q   :   -0.032893476   -0.285691517    0.064034100
 351   Q   :   -0.100923765    0.224987132    0.167588498
 352   Q   :    0.134768024    0.063444001   -0.232529529
 353   Q   :    0.043677244   -0.042681655    0.298744384
 354   Q   :    0.199434343   -0.073814311   -0.208364499
 355   Q   :   -0.236021509    0.121130923   -0.081591052
 356   Q   :   -0.020139210   -0.051519441    0.284314510
 357   Q   :    0.208885462    0.150853007   -0.121791761
 358   Q   :   -0.184760193   -0.103361689   -0.155053955
 359   Q   :   -0.066087749    0.001984562    0.282869772
 360   Q   :    0.184074333   -0.237360912   -0.068783837
 361   Q   :   -0.119322018    0.229028580   -0.230323405
 362   Q   :    0.166090700   -0.146985498    0.122190773
 363   Q   :   -0.157146591    0.190009527    0.099411003
 364   Q   :   -0.011168698   -0.036013710   -0.212446909
 365   Q   :    0.160292148   -0.209946422   -0.059237639
 366   Q   :   -0.066532685    0.085047606    0.231277534
 367   Q   :   -0.101911546    0.117838768   -0.166904868
 368   Q   :    0.054385068    0.010886743   -0.272907972
 369   Q   :   -0.127689542    0.205647005    0.167206783
 370   Q   :    0.074384240   -0.225065375    0.105333129
 371   Q   :   -0.118550445   -0.234426411   -0.136736668
 372   Q   :   -0.060847299    0.267701975   -0.022090421
 373   Q   :    0.171992044   -0.042995140    0.162167544
 374   Q   :   -0.131241277   -0.131776307    0.206387301
 375   Q   :   -0.068881325    0.241742056   -0.098641361
 376   Q   :    0.194973461   -0.096497282   -0.107422693
 377   Q   :   -0.200979019   -0.026789235   -0.222269787
 378   Q   :    0.106944247   -0.228464758    0.169125959
 379   Q   :    0.102402958    0.246031372    0.044107219
 380   Q   :    0.165569098   -0.016910623    0.238197306
 381   Q   :   -0.062491915   -0.195063799   -0.188237544
 382   Q   :   -0.093359117    0.219064234   -0.056801347
 383   Q   :    0.142700409    0.235263074   -0.024264327
 384   Q   :   -0.206990000   -0.092540019   -0.190075801
 385   Q   :    0.065729450   -0.138106954    0.205142150
 386   Q   :    0.040618496    0.288060656    0.019340458
 387   Q   :   -0.266519960   -0.142742371   -0.078494164
 388   Q   :    0.212278497   -0.148126617    0.057157173
 389   Q   :    0.240909624    0.160228352   -0.009038538
 390   Q   :   -0.247418499    0.115635091   -0.068561592
 391   Q   :    0.006263403   -0.268493182    0.078724846
 392   Q   :    0.189515797    0.038191339   -0.192249937
 393   Q   :   -0.153967772    0.170791981    0.142735942
 394   Q   :   -0.043821815   -0.209496534    0.052643822
 395   Q   :   -0.241138657   -0.049219742    0.105543401
 396   Q   :    0.214457351   -0.119050617   -0.000618835
 397   Q   :    0.024747814    0.189060129   -0.103886573
 398   Q   :    0.232943174    0.004816755    0.066661238
 399   Q   :   -0.209861764    0.015294373    0.168594980
 400   Q   :   -0.023430429   -0.025492320   -0.224839458
 401   Q   :   -0.172418654   -0.170842195    0.085941804
 402   Q   :   -0.031269863    0.258294033   -0.093220749
 403   Q   :    0.205978024   -0.079823593    0.004377761
 404   Q   :   -0.057435914   -0.140625929    0.209998547
 405   Q   :    0.226933314    0.109666359   -0.084603752
 406   Q   :   -0.171461954    0.026075827   -0.125083413
 407   Q   :    0.061281792    0.285855000   -0.063772256
 408   Q   :    0.160128124   -0.188480728   -0.056039529
 409   Q   :   -0.231238224   -0.088831923    0.121620765
 410   Q   :   -0.091166744    0.231798825    0.162565301
 411   Q   :   -0.072684890   -0.247592083    0.037498813
 412   Q   :    0.168523005    0.025827528   -0.211415037
 413   Q   :    0.296579142    0.066948573   -0.053528279
 414   Q   :   -0.154804958   -0.089754730   -0.178124119
 415   Q   :   -0.125947015    0.016828457    0.224578867
 416   Q   :   -0.112294352   -0.188915757    0.150334222
 417   Q   :    0.217128922   -0.019872494   -0.094790624
 418   Q   :   -0.112112211    0.206618647   -0.045307388
 419   Q   :   -0.025203320    0.063849894   -0.248009511
 420   Q   :   -0.153097834   -0.162083430    0.158022207
 421   Q   :    0.183682592    0.086487743    0.080092242
 422   Q   :    0.117794190   -0.011141966   -0.243608540
 423   Q   :   -0.084706806   -0.223185939    0.149173036
 424   Q   :   -0.033846195    0.233684926    0.102154447
 425   Q   :   -0.270933165    0.063082393    0.003530371
 426   Q   :    0.111158748   -0.185805324   -0.119735143
 427   Q   :    0.147275850    0.139432445    0.110588695
 428   Q   :    0.132804188   -0.178073603   -0.181027901
 429   Q   :    0.035421420    0.288315389    0.005416061
 430   Q   :   -0.155122516   -0.102442642    0.174552813
 431   Q   :   -0.096862758   -0.031653921    0.267195119
 432   Q   :   -0.041792200   -0.182213627   -0.202610183
 433   Q   :    0.134845488    0.212377607   -0.055064667
 434   Q   :    0.256074280    0.004765038    0.067862235
 435   Q   :   -0.136201388    0.209858616   -0.155684162
 436   Q   :   -0.130215523   -0.208571109    0.091291574
 437   Q   :    0.009056900   -0.116394235   -0.267120493
 438   Q   :   -0.117133099    0.254474749    0.075556284
 439   Q   :    0.102961577   -0.139954504    0.187717503
 440   Q   :   -0.241718514   -0.057620396   -0.005464708
 441   Q   :    0.152676151    0.159870243   -0.153640094
 442   Q   :    0.099495004   -0.101162461    0.169478065
 443   Q   :    0.087944733    0.293219797    0.086800095
 444   Q   :    0.059445744   -0.044096129   -0.311195006
 445   Q   :   -0.154973951   -0.243777451    0.224410406
 446   Q   :    0.176389318    0.298315651    0.046719218
 447   Q   :    0.006011173   -0.105502176   -0.265271050
 448   Q   :   -0.171234998   -0.196463107    0.226057781
 449   Q   :   -0.187906851   -0.127488548   -0.160680377
 450   Q   :    0.024752114    0.001182666    0.223332130
 451   Q   :    0.162496436    0.122713445   -0.073993265
 452   Q   :    0.176427944   -0.145103683   -0.166042078
 453   Q   :   -0.193010062   -0.091575593    0.139350793
 454   Q   :    0.021004855    0.226730265    0.027145098
 455   Q   :   -0.038751634   -0.153788704   -0.234368494
 456   Q   :   -0.209297602    0.125147565    0.128746462
 457   Q   :    0.252310822    0.032759067    0.109212988
 458   Q   :    0.031552321    0.132767723    0.185960968
 459   Q   :    0.015780555    0.091247501   -0.271783241
 460   Q   :   -0.043586355   -0.236020731    0.074088574
 461   Q   :   -0.003384189   -0.083581611   -0.248286730
 462   Q   :   -0.009098519    0.293850822    0.074565782
 463   Q   :    0.018044954   -0.204287093    0.183574809
 464   Q   :   -0.276065042    0.030340118   -0.119710193
 465   Q   :    0.219103049    0.203941405   -0.076014635
 466   Q   :    0.056480692   -0.231847277    0.183598472
 467   Q   :    0.136392603    0.205142985   -0.083800108
 468   Q   :    0.034003183   -0.245094717   -0.065809836
 469   Q   :   -0.177697438    0.045960412    0.165915455
 470   Q   :   -0.281070689   -0.068836201   -0.048181917
 471   Q   :    0.183768565    0.084334972   -0.168951506
 472   Q   :    0.098530512   -0.009460164    0.219219302
 473   Q   :    0.110019387    0.191152696    0.144130175
 474   Q   :   -0.241520525   -0.151967037    0.036558754
 475   Q   :    0.120268213   -0.047642661   -0.180176473
 476   Q   :    0.073122242   -0.164177632    0.236785974
 477   Q   :   -0.229896387    0.157728584   -0.033267402
 478   Q   :    0.149113107    0.004439996   -0.210702329
 479   Q   :   -0.109806254   -0.092975054   -0.242233944
 480   Q   :    0.028444838    0.274101964    0.056538204
 481   Q   :    0.079052295   -0.177314520    0.192998695
 482   Q   :   -0.036438468   -0.087589785   -0.281416116
 483   Q   :    0.080944008   -0.187029525    0.223859345
 484   Q   :   -0.039620254    0.276193162    0.050915766
 485   Q   :    0.044773099   -0.253589797   -0.002572560
 486   Q   :    0.210595907    0.192950425   -0.073434496
 487   Q   :   -0.255330084    0.050010289    0.075187006
 488   Q   :   -0.242579391    0.013347507   -0.033273418
 489   Q   :    0.204966532    0.025386843   -0.166103300
 490   Q   :    0.039364779   -0.038395956    0.188253622
 491   Q   :    0.003186590   -0.035139413    0.265200345
 492   Q   :    0.121241351   -0.166498821   -0.198709331
 493   Q   :   -0.127545863    0.198208687   -0.067623404
 494   Q   :   -0.151567699    0.017428730   -0.176265622
 495   Q   :    0.229415535   -0.157270299    0.001325403
 496   Q   :   -0.066441953    0.137202134    0.168735007
 497   Q   :   -0.189806181   -0.040504780    0.173396890
 498   Q   :    0.146755464   -0.181824849   -0.112146738
 499   Q   :    0.047390847    0.233972175   -0.052007714
 500   Q   :    0.013048204    0.189685153    0.245312096
 501   Q   :   -0.205189750   -0.186321295   -0.033527639
 502   Q   :    0.193003378    0.002797870   -0.224737583
 503   Q   :   -0.004504807    0.249124412   -0.122285243
 504   Q   :   -0.121882992   -0.239606604   -0.119452078
 505   Q   :    0.126293181   -0.011368538    0.233985260
 506   Q   :   -0.201463841   -0.118092252   -0.147416432
 507   Q   :    0.099501209    0.280453039   -0.035174945
 508   Q   :    0.109436101   -0.155516350    0.173234935
 509   Q   :   -0.057831363    0.171822472   -0.252304731
 510   Q   :    0.009280145   -0.289263094    0.020360749
 511   Q   :    0.033638694    0.116304043    0.230982320
 512   Q   :    0.131342847   -0.066632671    0.242323025
 513   Q   :   -0.032641327    0.250843949   -0.093374959
 514   Q   :   -0.099952167   -0.186752936   -0.141061075
 515   Q   :   -0.251706621   -0.109612724   -0.098079396
 516   Q   :    0.099304942    0.250649851   -0.092750035
 517   Q   :    0.152550226   -0.140707681    0.194596588
 518   Q   :    0.202218532   -0.033951328   -0.174486364
 519   Q   :   -0.173620283   -0.253645237    0.084079402
 520   Q   :   -0.028244577    0.282448574    0.088796133
 521   Q   :   -0.006665357   -0.238182104    0.159786638
 522   Q   :    0.180424594    0.073146939   -0.152127714
 523   Q   :   -0.184114279    0.159494516   -0.007226990
 524   Q   :   -0.238228582   -0.025599582   -0.038831169
 525   Q   :    0.128637834    0.028659036    0.218677049
 526   Q   :    0.116265019    0.008331091   -0.178299518
 527   Q   :    0.033178486    0.267616775   -0.184703144
 528   Q   :   -0.249607544   -0.169139362   -0.057075312
 529   Q   :    0.214950654   -0.092306031    0.238527316
 530   Q   :    0.113352984   -0.019640594   -0.270297854
 531   Q   :   -0.264730972    0.110930232    0.068285624
 532   Q   :    0.159986979   -0.089535406    0.211623620
 533   Q   :    0.106778778   -0.271770977   -0.014615237
 534   Q   :    0.104713894    0.191522058    0.120685172
 535   Q   :   -0.210096112    0.069734098   -0.113946884
 536   Q   :    0.130146803    0.232129083    0.008285458
 537   Q   :    0.094745431   -0.220275164   -0.134665465
 538   Q   :   -0.229142504   -0.009859989    0.123695541
 539   Q   :   -0.236391335    0.188107153    0.087465956
 540   Q   :    0.230594176   -0.029531802    0.143340007
 541   Q   :    0.010811205   -0.152704887   -0.225216604
 542   Q   :   -0.030814336    0.182184886   -0.227374478
 543   Q   :    0.152593817    0.048031980    0.219094689
 544   Q   :   -0.119530234   -0.219440681   -0.005899208
 545   Q   :   -0.149648076    0.227178071    0.016996838
 546   Q   :    0.141198717   -0.081522215   -0.206271381
 547   Q   :    0.005520548   -0.140494546    0.193255652
 548   Q   :   -0.101482791   -0.246915279   -0.094349133
 549   Q   :    0.110736048    0.078236110    0.247144877
 550   Q   :   -0.009440682    0.167544667   -0.155539170
 551   Q   :    0.005249350    0.206583332    0.152201265
 552   Q   :   -0.170134085   -0.238007780    0.070115800
 553   Q   :    0.159391693    0.019690307   -0.213666353
 554   Q   :    0.236198224    0.041962849   -0.118041284
 555   Q   :   -0.143252360   -0.242069188   -0.062856313
 556   Q   :   -0.090521310    0.205419689    0.178787377
 557   Q   :    0.075625323   -0.225181412   -0.015652194
 558   Q   :   -0.029210667    0.156889863    0.206197097
 559   Q   :   -0.052755757    0.074526873   -0.184961513
 560   Q   :   -0.064187617    0.067563390   -0.287327895
 561   Q   :   -0.201973924   -0.019827403    0.208178904
 562   Q   :    0.266194285   -0.052354891    0.078360314
 563   Q   :    0.003706532    0.238533710    0.155710849
 564   Q   :   -0.064738825   -0.242097886    0.081344999
 565   Q   :    0.062185693    0.016298946   -0.248462741
 566   Q   :   -0.128184651   -0.244474081    0.137879501
 567   Q   :   -0.046205450    0.061832349   -0.247275778
 568   Q   :    0.164730746    0.167677307    0.115444581
 569   Q   :    0.031201054   -0.257369588    0.050980350
 570   Q   :    0.206382851    0.180045614   -0.077011917
 571   Q   :   -0.227131760    0.076029589    0.015140254
 572   Q   :   -0.290745973   -0.068608586    0.057018012
 573   Q   :    0.194211415   -0.057554618    0.221557395
 574   Q   :    0.097928127    0.122214085   -0.276685120
 575   Q   :   -0.251843674    0.093437028   -0.010075874
 576   Q   :    0.243234618    0.087886968   -0.098654956
 577   Q   :    0.009423265   -0.186680399    0.103218307
 578   Q   :   -0.129000637   -0.064873110   -0.225512394
 579   Q   :    0.236372587    0.131813956    0.068269603
 580   Q   :   -0.111283287   -0.076435855    0.162756921
 581   Q   :    0.211993940    0.184102591   -0.089588847
 582   Q   :    0.027835523   -0.134359719    0.211121048
 583   Q   :   -0.238832976   -0.047155454   -0.140170670
 584   Q   :    0.053720736   -0.266803392    0.006187480
 585   Q   :   -0.123219733    0.142228603   -0.188500281
 586   Q   :    0.079427561    0.129409611    0.178240945
 587   Q   :    0.265822765   -0.115237715    0.089412330
 588   Q   :   -0.033274315    0.108666169   -0.226330499
 589   Q   :   -0.227163659    0.011559292    0.149077755
 590   Q   :    0.104044780   -0.248985615    0.115080431
 591   Q   :    0.039093307    0.278763796    0.092455836
 592   Q   :   -0.148716288   -0.038655106   -0.211472153
 593   Q   :    0.053999051    0.213115771    0.172265588
 594   Q   :   -0.180809266    0.028761234   -0.202524681
 595   Q   :    0.118755148   -0.231935378    0.030093677
 596   Q   :   -0.265077650   -0.123707197   -0.043516674
 597   Q   :    0.219268933   -0.098491189   -0.123498020
 598   Q   :    0.030457663    0.222727237    0.170597046
 599   Q   :   -0.240044785   -0.113529717    0.045741346
 600   Q   :    0.129037437    0.088534226   -0.259226587
 601   Q   :    0.111501050    0.019883383    0.208935369
 602   Q   :   -0.060464238   -0.280805432   -0.131342162
 603   Q   :   -0.174820000    0.214185841    0.040220446
 604   Q   :    0.238842977    0.069590483    0.086366809
 605   Q   :   -0.171763155    0.176453890    0.104773529
 606   Q   :   -0.020979091   -0.168149023   -0.226766679
 607   Q   :    0.191056629   -0.018546675    0.124607830
 608   Q   :   -0.153727156    0.092786143    0.245539966
 609   Q   :    0.121589958    0.171365466   -0.175188878
 610   Q   :    0.030780195   -0.258308042   -0.063625793
 611   Q   :   -0.216089087    0.057472350   -0.218054130
 612   Q   :   -0.018856710   -0.210838545    0.186701559
 613   Q   :    0.247093471    0.155805709    0.029204310
 614   Q   :    0.024542475   -0.048071299   -0.330573126
 615   Q   :    0.083818349    0.294475303    0.111479297
 616   Q   :   -0.111062102   -0.248711296    0.218074785

Difference to translation invariance:
           :   -0.0006336708   -0.0004218713    0.0002906145

Difference to rotation invariance:
           :    0.0142437552   -0.0194160456    0.0044175999

Norm of the cartesian gradient     ...    6.1997637936
RMS gradient                       ...    0.1442195580
MAX gradient                       ...    0.3305731260

-------
TIMINGS
-------

Total SCF gradient time            ...      186.296 sec

One electron gradient       ....      23.264 sec  ( 12.5%)
RI-J Coulomb gradient       ....       9.674 sec  (  5.2%)
COSX gradient               ....     116.963 sec  ( 62.8%)
XC gradient                 ....      14.473 sec  (  7.8%)

Maximum memory used throughout the entire SCFGRAD-calculation: 759.3 MB

                            ***************************************
                            *     ORCA property calculations      *
                            ***************************************

                                    ---------------------
                                    Active property flags
                                    ---------------------
   (+) Dipole Moment


------------------------------------------------------------------------------
                       ORCA ELECTRIC PROPERTIES CALCULATION
------------------------------------------------------------------------------

Dipole Moment Calculation                       ... on
Quadrupole Moment Calculation                   ... off
Polarizability Calculation                      ... off
GBWName                                         ... final061.orca.gbw
Electron density                                ... final061.orca.scfp
The origin for moment calculation is the CENTER OF MASS  = (22.086554, 20.373773 20.867837)

-------------
DIPOLE MOMENT
-------------
                                X             Y             Z
Electronic contribution:      0.45392      -1.35466       2.19823
Nuclear contribution   :     -1.23944      -5.48227     -12.79137
                        -----------------------------------------
Total Dipole Moment    :     -0.78552      -6.83693     -10.59314
                        -----------------------------------------
Magnitude (a.u.)       :     12.63231
Magnitude (Debye)      :     32.10878



--------------------
Rotational spectrum 
--------------------
 
Rotational constants in cm-1:     0.001831     0.001618     0.001364 
Rotational constants in MHz :    54.893135    48.496350    40.899790 

 Dipole components along the rotational axes: 
x,y,z [a.u.] :   -11.017179     3.929918    -4.769989 
x,y,z [Debye]:   -28.003443     9.989057   -12.124348 

 

Timings for individual modules:

Sum of individual times         ...      800.178 sec (=  13.336 min)
GTO integral calculation        ...       12.521 sec (=   0.209 min)   1.6 %
SCF iterations                  ...      597.208 sec (=   9.953 min)  74.6 %
SCF Gradient evaluation         ...      190.449 sec (=   3.174 min)  23.8 %
                             ****ORCA TERMINATED NORMALLY****
TOTAL RUN TIME: 0 days 0 hours 13 minutes 27 seconds 900 msec
