
                                 *****************
                                 * O   R   C   A *
                                 *****************

                                            #,                                       
                                            ###                                      
                                            ####                                     
                                            #####                                    
                                            ######                                   
                                           ########,                                 
                                     ,,################,,,,,                         
                               ,,#################################,,                 
                          ,,##########################################,,             
                       ,#########################################, ''#####,          
                    ,#############################################,,   '####,        
                  ,##################################################,,,,####,       
                ,###########''''           ''''###############################       
              ,#####''   ,,,,##########,,,,          '''####'''          '####       
            ,##' ,,,,###########################,,,                        '##       
           ' ,,###''''                  '''############,,,                           
         ,,##''                                '''############,,,,        ,,,,,,###''
      ,#''                                            '''#######################'''  
     '                                                          ''''####''''         
             ,#######,   #######,   ,#######,      ##                                
            ,#'     '#,  ##    ##  ,#'     '#,    #''#        ######   ,####,        
            ##       ##  ##   ,#'  ##            #'  '#       #        #'  '#        
            ##       ##  #######   ##           ,######,      #####,   #    #        
            '#,     ,#'  ##    ##  '#,     ,#' ,#      #,         ##   #,  ,#        
             '#######'   ##     ##  '#######'  #'      '#     #####' # '####'        



                  #######################################################
                  #                        -***-                        #
                  #          Department of theory and spectroscopy      #
                  #    Directorship and core code : Frank Neese         #
                  #        Max Planck Institute fuer Kohlenforschung    #
                  #                Kaiser Wilhelm Platz 1               #
                  #                 D-45470 Muelheim/Ruhr               #
                  #                      Germany                        #
                  #                                                     #
                  #                  All rights reserved                #
                  #                        -***-                        #
                  #######################################################


                         Program Version 5.0.3 -  RELEASE  -


 With contributions from (in alphabetic order):
   Daniel Aravena         : Magnetic Suceptibility
   Michael Atanasov       : Ab Initio Ligand Field Theory (pilot matlab implementation)
   Alexander A. Auer      : GIAO ZORA, VPT2 properties, NMR spectrum
   Ute Becker             : Parallelization
   Giovanni Bistoni       : ED, misc. LED, open-shell LED, HFLD
   Martin Brehm           : Molecular dynamics
   Dmytro Bykov           : SCF Hessian
   Vijay G. Chilkuri      : MRCI spin determinant printing, contributions to CSF-ICE
   Dipayan Datta          : RHF DLPNO-CCSD density
   Achintya Kumar Dutta   : EOM-CC, STEOM-CC
   Dmitry Ganyushin       : Spin-Orbit,Spin-Spin,Magnetic field MRCI
   Miquel Garcia          : C-PCM and meta-GGA Hessian, CC/C-PCM, Gaussian charge scheme
   Yang Guo               : DLPNO-NEVPT2, F12-NEVPT2, CIM, IAO-localization
   Andreas Hansen         : Spin unrestricted coupled pair/coupled cluster methods
   Benjamin Helmich-Paris : MC-RPA, TRAH-SCF, COSX integrals
   Lee Huntington         : MR-EOM, pCC
   Robert Izsak           : Overlap fitted RIJCOSX, COSX-SCS-MP3, EOM
   Marcus Kettner         : VPT2
   Christian Kollmar      : KDIIS, OOCD, Brueckner-CCSD(T), CCSD density, CASPT2, CASPT2-K
   Simone Kossmann        : Meta GGA functionals, TD-DFT gradient, OOMP2, MP2 Hessian
   Martin Krupicka        : Initial AUTO-CI
   Lucas Lang             : DCDCAS
   Marvin Lechner         : AUTO-CI (C++ implementation), FIC-MRCC
   Dagmar Lenk            : GEPOL surface, SMD
   Dimitrios Liakos       : Extrapolation schemes; Compound Job, initial MDCI parallelization
   Dimitrios Manganas     : Further ROCIS development; embedding schemes
   Dimitrios Pantazis     : SARC Basis sets
   Anastasios Papadopoulos: AUTO-CI, single reference methods and gradients
   Taras Petrenko         : DFT Hessian,TD-DFT gradient, ASA, ECA, R-Raman, ABS, FL, XAS/XES, NRVS
   Peter Pinski           : DLPNO-MP2, DLPNO-MP2 Gradient
   Christoph Reimann      : Effective Core Potentials
   Marius Retegan         : Local ZFS, SOC
   Christoph Riplinger    : Optimizer, TS searches, QM/MM, DLPNO-CCSD(T), (RO)-DLPNO pert. Triples
   Tobias Risthaus        : Range-separated hybrids, TD-DFT gradient, RPA, STAB
   Michael Roemelt        : Original ROCIS implementation
   Masaaki Saitow         : Open-shell DLPNO-CCSD energy and density
   Barbara Sandhoefer     : DKH picture change effects
   Avijit Sen             : IP-ROCIS
   Kantharuban Sivalingam : CASSCF convergence, NEVPT2, FIC-MRCI
   Bernardo de Souza      : ESD, SOC TD-DFT
   Georgi Stoychev        : AutoAux, RI-MP2 NMR, DLPNO-MP2 response
   Willem Van den Heuvel  : Paramagnetic NMR
   Boris Wezisla          : Elementary symmetry handling
   Frank Wennmohs         : Technical directorship


 We gratefully acknowledge several colleagues who have allowed us to
 interface, adapt or use parts of their codes:
   Stefan Grimme, W. Hujo, H. Kruse, P. Pracht,  : VdW corrections, initial TS optimization,
                  C. Bannwarth, S. Ehlert          DFT functionals, gCP, sTDA/sTD-DF
   Ed Valeev, F. Pavosevic, A. Kumar             : LibInt (2-el integral package), F12 methods
   Garnet Chan, S. Sharma, J. Yang, R. Olivares  : DMRG
   Ulf Ekstrom                                   : XCFun DFT Library
   Mihaly Kallay                                 : mrcc  (arbitrary order and MRCC methods)
   Jiri Pittner, Ondrej Demel                    : Mk-CCSD
   Frank Weinhold                                : gennbo (NPA and NBO analysis)
   Christopher J. Cramer and Donald G. Truhlar   : smd solvation model
   Lars Goerigk                                  : TD-DFT with DH, B97 family of functionals
   V. Asgeirsson, H. Jonsson                     : NEB implementation
   FAccTs GmbH                                   : IRC, NEB, NEB-TS, DLPNO-Multilevel, CI-OPT
                                                   MM, QMMM, 2- and 3-layer-ONIOM, Crystal-QMMM,
                                                   LR-CPCM, SF, NACMEs, symmetry and pop. for TD-DFT,
                                                   nearIR, NL-DFT gradient (VV10), updates on ESD,
                                                   ML-optimized integration grids
   S Lehtola, MJT Oliveira, MAL Marques          : LibXC Library
   Liviu Ungur et al                             : ANISO software


 Your calculation uses the libint2 library for the computation of 2-el integrals
 For citations please refer to: http://libint.valeyev.net

 Your ORCA version has been built with support for libXC version: 5.1.0
 For citations please refer to: https://tddft.org/programs/libxc/

 This ORCA versions uses:
   CBLAS   interface :  Fast vector & matrix operations
   LAPACKE interface :  Fast linear algebra routines
   SCALAPACK package :  Parallel linear algebra routines
   Shared memory     :  Shared parallel matrices
   BLAS/LAPACK       :  OpenBLAS 0.3.15  USE64BITINT DYNAMIC_ARCH NO_AFFINITY SkylakeX SINGLE_THREADED
        Core in use  :  SkylakeX
   Copyright (c) 2011-2014, The OpenBLAS Project


================================================================================

----- Orbital basis set information -----
Your calculation utilizes the basis: def2-SVP
   F. Weigend and R. Ahlrichs, Phys. Chem. Chem. Phys. 7, 3297 (2005).

The basis set includes element-specific modifications.

Your calculation utilizes the basis: aug-cc-pVTZ 
    H, B-Ne : Obtained from the ccRepo (grant-hill.group.shef.ac.uk/ccrepo) Feb. 2017
              R. A. Kendall, T. H. Dunning, Jr., R. J. Harrison, J. Chem. Phys. 96, 6796 (1992)
         He : Obtained from the ccRepo (grant-hill.group.shef.ac.uk/ccrepo) Feb. 2017
              D. E. Woon, T. H. Dunning, Jr., J. Chem. Phys. 100, 2975 (1994)
  Li-Be, Na : Obtained from the ccRepo (grant-hill.group.shef.ac.uk/ccrepo) Feb. 2017
              B. P. Prascher, D. E. Woon, K. A. Peterson, T. H. Dunning, Jr., A. K. Wilson, Theor. Chem. Acc. 128, 69 (2011)
         Mg : Obtained from the Peterson Research Group Website (tyr0.chem.wsu.edu/~kipeters) Feb. 2017
              B. P. Prascher, D. E. Woon, K. A. Peterson, T. H. Dunning, Jr., A. K. Wilson, Theor. Chem. Acc. 128, 69 (2011)
      Al-Ar : Obtained from the ccRepo (grant-hill.group.shef.ac.uk/ccrepo) Feb. 2017
              D. E. Woon, T. H. Dunning, Jr., J. Chem. Phys. 98, 1358 (1993)
      Sc-Zn : Obtained from the ccRepo (grant-hill.group.shef.ac.uk/ccrepo) Feb. 2017
              N. B. Balabanov, K. A. Peterson, J. Chem. Phys. 123, 064107 (2005)
              N. B. Balabanov, K. A. Peterson, J. Chem. Phys. 125, 074110 (2006)
      Ga-Kr : Obtained from the ccRepo (grant-hill.group.shef.ac.uk/ccrepo) Feb. 2017
              A. K. Wilson, D. E. Woon, K. A. Peterson, T. H. Dunning, Jr., J. Chem. Phys. 110, 7667 (1999)
     Ag, Au : Obtained from the Peterson Research Group Website (tyr0.chem.wsu.edu/~kipeters) Feb. 2017
              K. A. Peterson, C. Puzzarini, Theor. Chem. Acc. 114, 283 (2005)

Your calculation utilizes the basis: cc-pVTZ 
       H, B-Ne : Obtained from the ccRepo (grant-hill.group.shef.ac.uk/ccrepo) Feb. 2017
                 T. H. Dunning, Jr., J. Chem. Phys. 90, 1007 (1989)
            He : Obtained from the ccRepo (grant-hill.group.shef.ac.uk/ccrepo) Feb. 2017
                 D. E. Woon, T. H. Dunning, Jr., J. Chem. Phys. 100, 2975 (1994)
  Li-Be, Na-Mg : Obtained from the ccRepo (grant-hill.group.shef.ac.uk/ccrepo) Feb. 2017
                 B. P. Prascher, D. E. Woon, K. A. Peterson, T. H. Dunning, Jr., A. K. Wilson, Theor. Chem. Acc. 128, 69 (2011)
         Al-Ar : Obtained from the ccRepo (grant-hill.group.shef.ac.uk/ccrepo) Feb. 2017
                 D. E. Woon, T. H. Dunning, Jr., J. Chem. Phys. 98, 1358 (1993)
            Ca : Obtained from the Peterson Research Group Website (tyr0.chem.wsu.edu/~kipeters) Feb. 2017
                 J. Koput, K. A. Peterson, J. Phys. Chem. 106, 9595 (2002)
         Sc-Zn : Obtained from the ccRepo (grant-hill.group.shef.ac.uk/ccrepo) Feb. 2017
                 N. B. Balabanov, K. A. Peterson, J. Chem. Phys. 123, 064107 (2005)
                 N. B. Balabanov, K. A. Peterson, J. Chem. Phys. 125, 074110 (2006)
         Ga-Kr : Obtained from the ccRepo (grant-hill.group.shef.ac.uk/ccrepo) Feb. 2017
                 A. K. Wilson, D. E. Woon, K. A. Peterson, T. H. Dunning, Jr., J. Chem. Phys. 110, 7667 (1999)
             Y : Obtained from the ccRepo (grant-hill.group.shef.ac.uk/ccrepo) Feb. 2017
                 K. A. Peterson, D. Figgen, M. Dolg, H. Stoll, J. Chem. Phys. 126, 124101 (2007)
        Ag, Au : Obtained from the Peterson Research Group Website (tyr0.chem.wsu.edu/~kipeters) Feb. 2017
                 K. A. Peterson, C. Puzzarini, Theor. Chem. Acc. 114, 283 (2005)

----- AuxJ basis set information -----
Your calculation utilizes the auxiliary basis: def2/J
   F. Weigend, Phys. Chem. Chem. Phys. 8, 1057 (2006).

================================================================================
                                        WARNINGS
                       Please study these warnings very carefully!
================================================================================

WARNING: The globally-selected AuxJ basis set is optimized for use with ECPs
         Make sure a suitable alternative is explicitly given all heavy elements (Z>36)

INFO   : the flag for use of the SHARK integral package has been found!

================================================================================
                                       INPUT FILE
================================================================================
NAME = final012.orca.inp
|  1> ! NoMOPrint PrintBasis #MINIPRINT SMALLPRINT LARGEPRINT
|  2> ! ALLPOP XYZFILE
|  3> #! BP86 3-21G   TightSCF
|  4> ! ENGRAD
|  5> ! B3LYP NormalPNO PModel #DecontractAux
|  6> #! VerySlowConv 
|  7>  %maxcore 5000
|  8>  %scf  maxiter   500  end 
|  9> 
| 10> %pal
| 11>     nprocs 32
| 12> end
| 13> 
| 14> %basis
| 15>     NewGTO O    # New basis for oxygen
| 16>         "aug-cc-pVTZ"
| 17>     end
| 18>     NewGTO C    # New basis for carbon
| 19>         "aug-cc-pVTZ"
| 20>     end
| 21>     NewGTO H    # New basis for hydrogen
| 22>         "cc-pVTZ"
| 23>     end
| 24> end
| 25> 
| 26> * xyz 0   1
| 27>   C  12.65  12.04  11.12  #1
| 28>   H  12.43  12.6  10.18  #2
| 29>   H  13.49  11.43  10.85  #3
| 30>   C  11.48  11.14  11.61  #4
| 31>   H  11.67  10.88  12.63  #5
| 32>   H  10.62  11.76  11.41  #6
| 33>   C  11.37  9.88  10.85  #7
| 34>   H  11.05  9.11  11.64  #8
| 35>   H  12.37  9.52  10.52  #9
| 36>   C  10.32  9.83  9.76  #10
| 37>   H  10.33  8.84  9.26  #11
| 38>   H  10.6  10.59  8.97  #12
| 39>   O  9.02  10.03  10.26  #13
| 40>   H  8.36  9.86  9.54  #14
| 41>   O  13.02  13.01  12.08  #15
| 42>   H  13.45  12.62  12.87  #16
| 43>   O  12.24  15.47  12.48  #17
| 44>   H  12.72  14.67  12.11  #18
| 45>   H  11.71  15.71  11.72  #19
| 46>   O  7.07  10.07  8.43  #20
| 47>   H  7  9.64  7.57  #21
| 48>   H  7.19  11.02  8.44  #22
| 49>   O  15.96  10.11  12.57  #23
| 50>   H  15.54  9.28  12.84  #24
| 51>   H  15.79  10.23  11.57  #25
| 52>   O  10.19  13.88  14.11  #26
| 53>   H  10.04  13.25  13.33  #27
| 54>   H  10.86  14.49  13.78  #28
| 55>   O  14.88  12.36  14.15  #29
| 56>   H  15.22  11.52  13.78  #30
| 57>   H  14.26  12.16  14.88  #31
| 58>   O  8.87  8.61  12.6  #32
| 59>   H  8.85  9.19  11.8  #33
| 60>   H  8.36  9.16  13.18  #34
| 61>   O  13.53  17.77  11.6  #35
| 62>   H  14.46  17.88  11.76  #36
| 63>   H  13.35  16.86  11.86  #37
| 64>   O  8.68  15.91  12.87  #38
| 65>   H  9.32  16.58  12.9  #39
| 66>   H  8.86  15.37  13.67  #40
| 67>   O  6.58  8.87  5.99  #41
| 68>   H  7.31  8.31  5.7  #42
| 69>   H  6.44  9.53  5.26  #43
| 70>   O  10.61  15.9  9.77  #44
| 71>   H  9.9  15.23  9.96  #45
| 72>   H  11.23  15.36  9.27  #46
| 73>   O  13.45  10.62  7.68  #47
| 74>   H  13.15  9.67  7.99  #48
| 75>   H  12.63  11.06  7.7  #49
| 76>   O  12.19  11.85  15.79  #50
| 77>   H  11.83  10.99  15.72  #51
| 78>   H  11.57  12.43  15.29  #52
| 79>   O  11.88  6.78  9.85  #53
| 80>   H  10.98  6.6  10.08  #54
| 81>   H  12.19  5.9  9.94  #55
| 82>   O  9.45  13.04  16.61  #56
| 83>   H  10.15  12.9  17.26  #57
| 84>   H  9.79  13.49  15.84  #58
| 85>   O  15.31  10.49  9.64  #59
| 86>   H  14.65  10.69  9.03  #60
| 87>   H  16.03  11.11  9.41  #61
| 88>   O  12.3  14.88  8.22  #62
| 89>   H  12.12  15.6  7.58  #63
| 90>   H  12.11  14.01  7.81  #64
| 91>   O  8.71  11.65  5.67  #65
| 92>   H  8.47  11.96  6.6  #66
| 93>   H  8.8  10.72  5.68  #67
| 94>   O  12.69  7.95  7.6  #68
| 95>   H  12.39  7.29  8.25  #69
| 96>   H  13.17  7.39  7  #70
| 97>   O  14.72  8.5  14.38  #71
| 98>   H  14.73  8.73  15.32  #72
| 99>   H  14.11  7.73  14.23  #73
|100>   O  7.73  12.85  7.95  #74
|101>   H  7.93  13.43  8.67  #75
|102>   H  6.87  13.19  7.69  #76
|103>   O  5.42  7.69  9.36  #77
|104>   H  5.74  7.05  8.72  #78
|105>   H  5.93  8.49  9.3  #79
|106>   O  17.58  10.16  14.79  #80
|107>   H  18.42  10.72  14.84  #81
|108>   H  17.41  10  13.85  #82
|109>   O  8.03  12.36  12.71  #83
|110>   H  8.27  11.73  12.06  #84
|111>   H  7.99  11.77  13.52  #85
|112>   O  15.76  15.03  14.5  #86
|113>   H  15.16  15.67  14.87  #87
|114>   H  15.44  14.17  14.58  #88
|115>   O  11.23  9.34  15.1  #89
|116>   H  11.89  8.65  15.12  #90
|117>   H  10.34  9  15.17  #91
|118>   Q  0.6645  15.96$  8.81$  8.78$
|119>   Q  0.6645  17.3$  8.2$  8.82$
|120>   Q  -1.3290  16.52$  8.27$  8.52$
|121>   Q  0.6645  11.3$  12.04$  18.86$
|122>   Q  0.6645  11.04$  13.27$  19.63$
|123>   Q  -1.3290  10.79$  12.62$  19.16$
|124>   Q  0.6645  1.93$  8.94$  14.98$
|125>   Q  0.6645  2.84$  9.01$  16.28$
|126>   Q  -1.3290  2.57$  9.25$  15.48$
|127>   Q  0.6645  6.07$  19.1$  12.94$
|128>   Q  0.6645  7.11$  20.15$  13.49$
|129>   Q  -1.3290  6.45$  19.86$  12.99$
|130>   Q  0.6645  13.19$  14.33$  4.32$
|131>   Q  0.6645  13.16$  13.08$  3.57$
|132>   Q  -1.3290  13.08$  13.52$  4.27$
|133>   Q  0.6645  3.13$  10.65$  7.66$
|134>   Q  0.6645  2.24$  11.27$  8.53$
|135>   Q  -1.3290  3.01$  10.99$  8.34$
|136>   Q  0.6645  5.65$  1.96$  14.37$
|137>   Q  0.6645  5.63$  3.36$  15.14$
|138>   Q  -1.3290  5.68$  2.8$  14.46$
|139>   Q  0.6645  16.73$  16.25$  20.25$
|140>   Q  0.6645  15.85$  17.54$  20.38$
|141>   Q  -1.3290  16.41$  17.01$  20.03$
|142>   Q  0.6645  16.8$  14.55$  18.73$
|143>   Q  0.6645  17.05$  14.35$  17.17$
|144>   Q  -1.3290  16.73$  14.7$  17.88$
|145>   Q  0.6645  0.24$  14.33$  11.94$
|146>   Q  0.6645  -0.04$  15.08$  10.82$
|147>   Q  -1.3290  0.2$  14.4$  11.14$
|148>   Q  0.6645  16.3$  12.51$  17.47$
|149>   Q  0.6645  17.79$  12.33$  17.93$
|150>   Q  -1.3290  16.95$  12.11$  17.86$
|151>   Q  0.6645  6.17$  11.95$  4.3$
|152>   Q  0.6645  5.16$  10.98$  3.84$
|153>   Q  -1.3290  5.93$  11.2$  3.99$
|154>   Q  0.6645  5.95$  7.09$  11.1$
|155>   Q  0.6645  6.28$  5.76$  11.51$
|156>   Q  -1.3290  6.34$  6.57$  11.56$
|157>   Q  0.6645  17.23$  13.94$  21.29$
|158>   Q  0.6645  18.4$  14.59$  20.55$
|159>   Q  -1.3290  17.59$  14.36$  20.66$
|160>   Q  0.6645  9.21$  10.92$  21.37$
|161>   Q  0.6645  9.45$  11.72$  19.99$
|162>   Q  -1.3290  9.02$  11.27$  20.6$
|163>   Q  0.6645  13.71$  18.4$  18.81$
|164>   Q  0.6645  12.24$  18.03$  18.76$
|165>   Q  -1.3290  12.93$  18.43$  19.08$
|166>   Q  0.6645  4.58$  15.63$  9.41$
|167>   Q  0.6645  3.63$  14.64$  10.26$
|168>   Q  -1.3290  3.97$  15.02$  9.56$
|169>   Q  0.6645  4.61$  13.87$  8.37$
|170>   Q  0.6645  4.43$  12.36$  8.16$
|171>   Q  -1.3290  4.75$  13.12$  7.98$
|172>   Q  0.6645  2.65$  16.03$  8.64$
|173>   Q  0.6645  1.3$  16.14$  8.03$
|174>   Q  -1.3290  1.95$  16.48$  8.43$
|175>   Q  0.6645  15.9$  15.62$  9.5$
|176>   Q  0.6645  14.52$  15.01$  9.08$
|177>   Q  -1.3290  15.33$  15.23$  8.96$
|178>   Q  0.6645  10.73$  12.14$  6.31$
|179>   Q  0.6645  12$  12.88$  6.08$
|180>   Q  -1.3290  11.41$  12.55$  6.58$
|181>   Q  0.6645  15.13$  19.83$  5.81$
|182>   Q  0.6645  14.08$  19.96$  4.67$
|183>   Q  -1.3290  14.78$  19.69$  5.04$
|184>   Q  0.6645  14.76$  12.37$  2.01$
|185>   Q  0.6645  13.76$  11.36$  2.33$
|186>   Q  -1.3290  13.99$  12.12$  2.13$
|187>   Q  0.6645  14.26$  4.67$  9.04$
|188>   Q  0.6645  12.98$  4.49$  8.14$
|189>   Q  -1.3290  13.44$  4.45$  8.86$
|190>   Q  0.6645  16.7$  5.44$  5.2$
|191>   Q  0.6645  15.69$  4.3$  5.09$
|192>   Q  -1.3290  16.09$  4.97$  5.45$
|193>   Q  0.6645  3.08$  11.26$  2.72$
|194>   Q  0.6645  3.1$  12.49$  3.57$
|195>   Q  -1.3290  3.24$  11.67$  3.42$
|196>   Q  0.6645  7.52$  10.82$  17.77$
|197>   Q  0.6645  8.74$  11.18$  16.95$
|198>   Q  -1.3290  8.22$  10.68$  17.33$
|199>   Q  0.6645  17.58$  4.81$  16.34$
|200>   Q  0.6645  16.39$  4.53$  15.45$
|201>   Q  -1.3290  16.8$  4.93$  16.05$
|202>   Q  0.6645  9.24$  16.7$  3.09$
|203>   Q  0.6645  8.75$  17.81$  2.19$
|204>   Q  -1.3290  9.26$  17.47$  2.76$
|205>   Q  0.6645  13.81$  8.91$  2.84$
|206>   Q  0.6645  14.81$  9.74$  3.59$
|207>   Q  -1.3290  14.5$  9.37$  2.91$
|208>   Q  0.6645  -0.05$  6.24$  8.7$
|209>   Q  0.6645  0.13$  5.47$  10$
|210>   Q  -1.3290  0.27$  6.09$  9.45$
|211>   Q  0.6645  9.36$  6.52$  16.95$
|212>   Q  0.6645  8.7$  5.28$  16.24$
|213>   Q  -1.3290  9.04$  5.74$  16.87$
|214>   Q  0.6645  15.19$  9.09$  20.36$
|215>   Q  0.6645  15.72$  8.17$  21.48$
|216>   Q  -1.3290  15.21$  8.4$  20.85$
|217>   Q  0.6645  17.54$  18.72$  9.84$
|218>   Q  0.6645  17.8$  20.18$  9.71$
|219>   Q  -1.3290  17.3$  19.48$  9.83$
|220>   Q  0.6645  0.82$  12.92$  9.58$
|221>   Q  0.6645  -0.32$  11.95$  8.91$
|222>   Q  -1.3290  0.45$  12.39$  8.98$
|223>   Q  0.6645  15.19$  13.92$  6.93$
|224>   Q  0.6645  14.92$  12.88$  5.8$
|225>   Q  -1.3290  15.39$  13.39$  6.28$
|226>   Q  0.6645  15.48$  4.92$  17.41$
|227>   Q  0.6645  14.47$  5.44$  18.4$
|228>   Q  -1.3290  14.89$  4.84$  18.01$
|229>   Q  0.6645  7.95$  14.7$  1.56$
|230>   Q  0.6645  6.47$  14.25$  1.55$
|231>   Q  -1.3290  7.16$  14.73$  1.82$
|232>   Q  0.6645  13.81$  2.58$  9.59$
|233>   Q  0.6645  15.19$  1.84$  9.88$
|234>   Q  -1.3290  14.35$  1.96$  9.89$
|235>   Q  0.6645  11.77$  2.74$  5.25$
|236>   Q  0.6645  11.2$  1.6$  4.31$
|237>   Q  -1.3290  11.81$  2.08$  4.72$
|238>   Q  0.6645  14.48$  13.68$  17.94$
|239>   Q  0.6645  13.4$  12.59$  17.35$
|240>   Q  -1.3290  14.18$  12.96$  17.53$
|241>   Q  0.6645  15.81$  5.39$  7.66$
|242>   Q  0.6645  16.16$  6.42$  8.77$
|243>   Q  -1.3290  16$  5.63$  8.44$
|244>   Q  0.6645  16.94$  17.8$  12.81$
|245>   Q  0.6645  16.05$  16.44$  13.12$
|246>   Q  -1.3290  16.36$  17.07$  12.64$
|247>   Q  0.6645  14.32$  20.38$  11.16$
|248>   Q  0.6645  15.8$  19.87$  11.23$
|249>   Q  -1.3290  15.08$  20.22$  11.52$
|250>   Q  0.6645  9.93$  5.98$  12.59$
|251>   Q  0.6645  9.28$  7.09$  13.18$
|252>   Q  -1.3290  9.53$  6.31$  13.19$
|253>   Q  0.6645  20.09$  7.96$  11.09$
|254>   Q  0.6645  21.44$  7.42$  10.78$
|255>   Q  -1.3290  20.88$  7.77$  11.28$
|256>   Q  0.6645  14.36$  17.96$  5.67$
|257>   Q  0.6645  13.3$  17.65$  6.71$
|258>   Q  -1.3290  13.86$  17.46$  6.12$
|259>   Q  0.6645  11.86$  8.29$  17.13$
|260>   Q  0.6645  11.04$  7.98$  18.44$
|261>   Q  -1.3290  11.74$  8.15$  17.99$
|262>   Q  0.6645  2.1$  6.72$  8.75$
|263>   Q  0.6645  3.64$  7.28$  8.64$
|264>   Q  -1.3290  2.85$  6.94$  8.4$
|265>   Q  0.6645  4.21$  9.33$  14.24$
|266>   Q  0.6645  4.69$  8.33$  13.06$
|267>   Q  -1.3290  4.76$  8.9$  13.72$
|268>   Q  0.6645  17.88$  5.38$  3.25$
|269>   Q  0.6645  17.67$  6.89$  3.75$
|270>   Q  -1.3290  17.47$  6.16$  3.29$
|271>   Q  0.6645  18.91$  18.62$  15.91$
|272>   Q  0.6645  18.22$  18.58$  17.21$
|273>   Q  -1.3290  18.45$  18.94$  16.5$
|274>   Q  0.6645  13.48$  1.94$  11.69$
|275>   Q  0.6645  12.07$  2.55$  12.16$
|276>   Q  -1.3290  12.89$  2.29$  12.24$
|277>   Q  0.6645  19.52$  7.42$  14.42$
|278>   Q  0.6645  20.5$  7.12$  13.27$
|279>   Q  -1.3290  20.28$  7.24$  14.08$
|280>   Q  0.6645  8.73$  5.03$  7.34$
|281>   Q  0.6645  9.17$  6.38$  6.81$
|282>   Q  -1.3290  9.15$  5.74$  7.37$
|283>   Q  0.6645  15.51$  11.41$  19.48$
|284>   Q  0.6645  15.45$  11.05$  20.93$
|285>   Q  -1.3290  15.18$  11.03$  20.11$
|286>   Q  0.6645  12.9$  20.49$  9.56$
|287>   Q  0.6645  12.63$  19.18$  10.35$
|288>   Q  -1.3290  12.53$  19.99$  10.14$
|289>   Q  0.6645  0.51$  8.15$  6.56$
|290>   Q  0.6645  1.86$  7.4$  6.99$
|291>   Q  -1.3290  1.24$  7.68$  6.43$
|292>   Q  0.6645  4.05$  16.67$  5.59$
|293>   Q  0.6645  4.85$  17.14$  4.31$
|294>   Q  -1.3290  4.29$  17.26$  4.99$
|295>   Q  0.6645  8.77$  15.74$  19.01$
|296>   Q  0.6645  8.16$  16.9$  19.67$
|297>   Q  -1.3290  8.79$  16.43$  19.47$
|298>   Q  0.6645  17.8$  7.19$  6.41$
|299>   Q  0.6645  19.11$  6.88$  5.65$
|300>   Q  -1.3290  18.35$  7.23$  5.77$
|301>   Q  0.6645  6.95$  4.1$  19.12$
|302>   Q  0.6645  8.1$  4.96$  18.43$
|303>   Q  -1.3290  7.52$  4.77$  19.02$
|304>   Q  0.6645  19.35$  11$  8.23$
|305>   Q  0.6645  20.29$  9.87$  8.35$
|306>   Q  -1.3290  19.87$  10.52$  8.67$
|307>   Q  0.6645  19.91$  15.4$  8.3$
|308>   Q  0.6645  20.45$  16.32$  7.11$
|309>   Q  -1.3290  19.89$  16.08$  7.73$
|310>   Q  0.6645  20.67$  11.87$  15.42$
|311>   Q  0.6645  20.89$  11.08$  14.16$
|312>   Q  -1.3290  20.47$  11.3$  14.85$
|313>   Q  0.6645  9.65$  5.64$  2.3$
|314>   Q  0.6645  8.49$  6.64$  2.21$
|315>   Q  -1.3290  8.96$  6.07$  2.58$
|316>   Q  0.6645  13.28$  6.66$  11.34$
|317>   Q  0.6645  14$  5.66$  12.05$
|318>   Q  -1.3290  13.95$  6.36$  11.64$
|319>   Q  0.6645  6.5$  9.98$  14.26$
|320>   Q  0.6645  7.75$  9.81$  15.13$
|321>   Q  -1.3290  7.3$  10.13$  14.47$
|322>   Q  0.6645  9.65$  1.16$  8.55$
|323>   Q  0.6645  9.26$  -0.07$  7.55$
|324>   Q  -1.3290  9.53$  0.73$  7.79$
|325>   Q  0.6645  10.05$  17.46$  9.65$
|326>   Q  0.6645  9.68$  18.95$  10.01$
|327>   Q  -1.3290  9.68$  18.22$  9.54$
|328>   Q  0.6645  16.34$  13.22$  8.68$
|329>   Q  0.6645  17.37$  12.95$  9.75$
|330>   Q  -1.3290  16.87$  12.77$  9.11$
|331>   Q  0.6645  5.77$  3.22$  11.09$
|332>   Q  0.6645  5.63$  3.62$  12.62$
|333>   Q  -1.3290  5.65$  3.76$  11.76$
|334>   Q  0.6645  0.43$  13.68$  7.61$
|335>   Q  0.6645  1.4$  14.64$  6.74$
|336>   Q  -1.3290  0.67$  14.45$  7.2$
|337>   Q  0.6645  5.73$  16.99$  14$
|338>   Q  0.6645  7.24$  16.75$  13.6$
|339>   Q  -1.3290  6.54$  16.69$  14.1$
|340>   Q  0.6645  4.66$  7.62$  1.53$
|341>   Q  0.6645  4.49$  8.08$  2.87$
|342>   Q  -1.3290  4.75$  8.15$  2.11$
|343>   Q  0.6645  17.45$  14.69$  3.85$
|344>   Q  0.6645  17.02$  13.61$  4.95$
|345>   Q  -1.3290  17.56$  14$  4.36$
|346>   Q  0.6645  11.34$  3.75$  1.94$
|347>   Q  0.6645  10.02$  3.45$  1.15$
|348>   Q  -1.3290  10.63$  3.93$  1.54$
|349>   Q  0.6645  19.98$  12.84$  17.49$
|350>   Q  0.6645  19.94$  12.44$  19.03$
|351>   Q  -1.3290  19.67$  12.81$  18.3$
|352>   Q  0.6645  11.93$  7.27$  3.08$
|353>   Q  0.6645  12.06$  7.91$  1.54$
|354>   Q  -1.3290  11.85$  7.86$  2.42$
|355>   Q  0.6645  5.82$  7.33$  14.49$
|356>   Q  0.6645  6.88$  6.72$  13.73$
|357>   Q  -1.3290  6.49$  6.87$  14.46$
|358>   Q  0.6645  10.01$  14.45$  3.37$
|359>   Q  0.6645  9.83$  15.14$  4.69$
|360>   Q  -1.3290  9.75$  15.06$  3.87$
|361>   Q  0.6645  11.74$  3.8$  19.66$
|362>   Q  0.6645  11.22$  4.31$  18.23$
|363>   Q  -1.3290  11.16$  4.06$  19.05$
|364>   Q  0.6645  16.01$  2.29$  13.89$
|365>   Q  0.6645  15.24$  3.59$  13.91$
|366>   Q  -1.3290  15.87$  3.08$  14.12$
|367>   Q  0.6645  4.38$  5.22$  15.63$
|368>   Q  0.6645  5.73$  5.75$  16.03$
|369>   Q  -1.3290  5.1$  5.17$  16.05$
|370>   Q  0.6645  2.25$  9.2$  5.82$
|371>   Q  0.6645  2.75$  10.51$  5$
|372>   Q  -1.3290  2.4$  10.06$  5.67$
|373>   Q  0.6645  16.84$  21.53$  16.8$
|374>   Q  0.6645  16.49$  20.14$  16.3$
|375>   Q  -1.3290  16.4$  20.97$  16.33$
|376>   Q  0.6645  9.45$  20.63$  11.78$
|377>   Q  0.6645  10.73$  20.77$  10.97$
|378>   Q  -1.3290  9.91$  20.79$  11.09$
|379>   Q  0.6645  10.04$  19.01$  5.62$
|380>   Q  0.6645  9.99$  18.33$  4.21$
|381>   Q  -1.3290  10.41$  18.71$  4.89$
|382>   Q  0.6645  2.68$  7.55$  12.43$
|383>   Q  0.6645  3.27$  6.5$  11.47$
|384>   Q  -1.3290  3.28$  7$  12.12$
|385>   Q  0.6645  0.91$  11.83$  13.27$
|386>   Q  0.6645  0.36$  11.84$  11.8$
|387>   Q  -1.3290  0.32$  11.84$  12.67$
|388>   Q  0.6645  4.07$  13.54$  13$
|389>   Q  0.6645  2.72$  14.11$  12.64$
|390>   Q  -1.3290  3.47$  13.77$  12.47$
|391>   Q  0.6645  4$  17.56$  12.38$
|392>   Q  0.6645  3.53$  18.63$  13.35$
|393>   Q  -1.3290  3.93$  17.93$  13.15$
|394>   Q  0.6645  18.1$  11.44$  5.95$
|395>   Q  0.6645  17.72$  12.16$  7.25$
|396>   Q  -1.3290  18.26$  11.85$  6.68$
|397>   Q  0.6645  8.77$  2.28$  15.46$
|398>   Q  0.6645  8.66$  1.18$  16.49$
|399>   Q  -1.3290  8.9$  1.5$  15.74$
|400>   Q  0.6645  8.2$  1.69$  10.1$
|401>   Q  0.6645  9.33$  0.85$  10.58$
|402>   Q  -1.3290  9$  1.54$  10.27$
|403>   Q  0.6645  14.3$  10.26$  6.31$
|404>   Q  0.6645  15.79$  10.13$  5.68$
|405>   Q  -1.3290  14.9$  9.98$  5.73$
|406>   Q  0.6645  19.61$  17.23$  14.27$
|407>   Q  0.6645  19.78$  16.53$  15.66$
|408>   Q  -1.3290  19.92$  17.14$  15.04$
|409>   Q  0.6645  10.74$  11.59$  3.56$
|410>   Q  0.6645  11.07$  10.34$  2.78$
|411>   Q  -1.3290  11.02$  10.83$  3.47$
|412>   Q  0.6645  10.72$  1.45$  15.14$
|413>   Q  0.6645  11.97$  1.52$  14.22$
|414>   Q  -1.3290  11.56$  1.58$  14.96$
|415>   Q  0.6645  13.33$  3.72$  13.11$
|416>   Q  0.6645  13.14$  4.58$  14.34$
|417>   Q  -1.3290  13.43$  4.4$  13.59$
|418>   Q  0.6645  2.67$  6.47$  15.25$
|419>   Q  0.6645  3.24$  6.15$  13.81$
|420>   Q  -1.3290  3.05$  6.02$  14.65$
|421>   Q  0.6645  17.15$  6.88$  12.77$
|422>   Q  0.6645  15.97$  6.71$  11.68$
|423>   Q  -1.3290  16.79$  6.75$  11.95$
|424>   Q  0.6645  17.51$  8.19$  14.86$
|425>   Q  0.6645  17.15$  6.72$  15.12$
|426>   Q  -1.3290  17.49$  7.36$  14.72$
|427>   Q  0.6645  19.11$  10.96$  19.65$
|428>   Q  0.6645  20.55$  10.69$  20.29$
|429>   Q  -1.3290  19.72$  11.04$  20.25$
|430>   Q  0.6645  18.8$  9.31$  10.16$
|431>   Q  0.6645  17.75$  8.15$  10.79$
|432>   Q  -1.3290  18.35$  8.53$  10.23$
|433>   Q  0.6645  8.95$  2.44$  7.04$
|434>   Q  0.6645  8.88$  3.04$  5.72$
|435>   Q  -1.3290  8.71$  3.01$  6.51$
|436>   Q  0.6645  17.17$  3.22$  10.36$
|437>   Q  0.6645  17.06$  3.46$  8.87$
|438>   Q  -1.3290  17.05$  2.95$  9.59$
|439>   Q  0.6645  8.19$  16.3$  6.17$
|440>   Q  0.6645  6.99$  15.35$  5.76$
|441>   Q  -1.3290  7.4$  15.95$  6.2$
|442>   Q  0.6645  3.45$  3.81$  11.8$
|443>   Q  0.6645  2.17$  3.69$  12.72$
|444>   Q  -1.3290  2.62$  3.71$  12$
|445>   Q  0.6645  20.72$  9.97$  16.03$
|446>   Q  0.6645  21.52$  8.64$  16.42$
|447>   Q  -1.3290  21.07$  9.36$  16.57$
|448>   Q  0.6645  1.68$  9.65$  12.27$
|449>   Q  0.6645  0.41$  8.83$  12.19$
|450>   Q  -1.3290  1.19$  9.05$  12.53$
|451>   Q  0.6645  3.67$  14.22$  6.39$
|452>   Q  0.6645  3.06$  14.82$  5.15$
|453>   Q  -1.3290  3.24$  14.81$  5.98$
|454>   Q  0.6645  13.37$  19.91$  14.82$
|455>   Q  0.6645  13.63$  19.42$  13.32$
|456>   Q  -1.3290  13.24$  19.46$  14.11$
|457>   Q  0.6645  7.87$  8.09$  0.99$
|458>   Q  0.6645  8.71$  7.08$  0.2$
|459>   Q  -1.3290  8.03$  7.37$  0.58$
|460>   Q  0.6645  13.97$  16.45$  4.49$
|461>   Q  0.6645  13.47$  16.4$  3.05$
|462>   Q  -1.3290  13.98$  16.19$  3.68$
|463>   Q  0.6645  12.01$  13.27$  1.42$
|464>   Q  0.6645  10.73$  14$  1.14$
|465>   Q  -1.3290  11.17$  13.41$  1.52$
|466>   Q  0.6645  9.15$  18.61$  16.51$
|467>   Q  0.6645  7.93$  17.92$  15.99$
|468>   Q  -1.3290  8.47$  18.56$  16.07$
|469>   Q  0.6645  6.29$  16.45$  16.03$
|470>   Q  0.6645  6.91$  15.96$  17.4$
|471>   Q  -1.3290  6.43$  16.44$  16.88$
|472>   Q  0.6645  12.32$  5.76$  15.7$
|473>   Q  0.6645  11.37$  6.43$  14.74$
|474>   Q  -1.3290  12.02$  6.4$  15.26$
|475>   Q  0.6645  11.87$  4.92$  5.9$
|476>   Q  0.6645  10.92$  4.83$  7.16$
|477>   Q  -1.3290  11.63$  4.68$  6.68$
|478>   Q  0.6645  10.98$  9.9$  0.23$
|479>   Q  0.6645  10.65$  11.4$  0.69$
|480>   Q  -1.3290  10.54$  10.54$  0.67$
|481>   Q  0.6645  13.32$  6.09$  4.66$
|482>   Q  0.6645  13$  5.08$  3.56$
|483>   Q  -1.3290  12.82$  5.66$  4.14$
|484>   Q  0.6645  10.76$  9.86$  5.24$
|485>   Q  0.6645  11.33$  8.93$  6.43$
|486>   Q  -1.3290  10.72$  9.35$  5.95$
|487>   Q  0.6645  20.9$  13.81$  5.81$
|488>   Q  0.6645  19.57$  12.9$  5.81$
|489>   Q  -1.3290  20.44$  13.14$  5.63$
|490>   Q  0.6645  16.72$  13.48$  12.1$
|491>   Q  0.6645  18.31$  13.52$  12.13$
|492>   Q  -1.3290  17.51$  13.49$  11.77$
|493>   Q  0.6645  11.29$  16.74$  17.63$
|494>   Q  0.6645  11.99$  15.49$  18.26$
|495>   Q  -1.3290  11.9$  16.15$  17.73$
|496>   Q  0.6645  17.36$  15.2$  15.15$
|497>   Q  0.6645  18.62$  14.66$  14.61$
|498>   Q  -1.3290  18.16$  15$  15.23$
|499>   Q  0.6645  7.3$  13.86$  3.49$
|500>   Q  0.6645  7.68$  13.04$  4.84$
|501>   Q  -1.3290  7.18$  13.49$  4.27$
|502>   Q  0.6645  14.16$  6.84$  20.22$
|503>   Q  0.6645  12.85$  6.91$  19.41$
|504>   Q  -1.3290  13.44$  6.51$  19.86$
|505>   Q  0.6645  16.98$  8.84$  18.34$
|506>   Q  0.6645  17.11$  10.22$  18.15$
|507>   Q  -1.3290  17.4$  9.49$  18.36$
|508>   Q  0.6645  18.32$  16.77$  18.73$
|509>   Q  0.6645  18.62$  15.74$  17.69$
|510>   Q  -1.3290  18.8$  16.4$  18.14$
|511>   Q  0.6645  15.91$  16.95$  6.96$
|512>   Q  0.6645  17.49$  16.5$  6.86$
|513>   Q  -1.3290  16.77$  16.93$  6.68$
|514>   Q  0.6645  8.66$  6.97$  4.62$
|515>   Q  0.6645  9.4$  8.04$  5.57$
|516>   Q  -1.3290  8.83$  7.42$  5.33$
|517>   Q  0.6645  8.76$  9.92$  1.82$
|518>   Q  0.6645  7.44$  9.91$  2.77$
|519>   Q  -1.3290  7.98$  9.66$  2.11$
|520>   Q  0.6645  15.83$  10.42$  16.08$
|521>   Q  0.6645  14.87$  10.59$  17.14$
|522>   Q  -1.3290  15.38$  10.14$  16.68$
|523>   Q  0.6645  6.23$  14.56$  14.41$
|524>   Q  0.6645  6.8$  13.29$  13.63$
|525>   Q  -1.3290  6.2$  13.76$  14.09$
|526>   Q  0.6645  1.1$  6.61$  3.02$
|527>   Q  0.6645  1.94$  7.66$  3.75$
|528>   Q  -1.3290  1.48$  7.37$  3.12$
|529>   Q  0.6645  13.53$  17.11$  15.01$
|530>   Q  0.6645  13.26$  16.37$  16.29$
|531>   Q  -1.3290  13.74$  16.71$  15.71$
|532>   Q  0.6645  4.65$  13.66$  15.52$
|533>   Q  0.6645  4.12$  13.91$  16.91$
|534>   Q  -1.3290  4.03$  13.81$  16.11$
|535>   Q  0.6645  19.18$  18.12$  12.04$
|536>   Q  0.6645  18.87$  19.3$  12.78$
|537>   Q  -1.3290  18.79$  18.51$  12.63$
|538>   Q  0.6645  9.12$  9.42$  19.18$
|539>   Q  0.6645  8.46$  8.17$  19.61$
|540>   Q  -1.3290  9.1$  8.59$  19.33$
|541>   Q  0.6645  5.78$  4.86$  7$
|542>   Q  0.6645  4.66$  5.75$  6.68$
|543>   Q  -1.3290  5.35$  5.54$  7.09$
|544>   Q  0.6645  15.28$  2.79$  3.4$
|545>   Q  0.6645  14.19$  2.47$  4.6$
|546>   Q  -1.3290  14.98$  2.71$  4.25$
|547>   Q  0.6645  8.45$  6.65$  10.84$
|548>   Q  0.6645  8.98$  6$  9.57$
|549>   Q  -1.3290  8.98$  6.18$  10.4$
|550>   Q  0.6645  2.85$  10.84$  10.52$
|551>   Q  0.6645  3.02$  12.02$  11.58$
|552>   Q  -1.3290  2.67$  11.31$  11.21$
|553>   Q  0.6645  17.04$  16.63$  10.89$
|554>   Q  0.6645  17.59$  15.31$  10.47$
|555>   Q  -1.3290  17.55$  16.13$  10.48$
|556>   Q  0.6645  7.65$  17.65$  9.01$
|557>   Q  0.6645  7.13$  16.56$  8.02$
|558>   Q  -1.3290  7.17$  17.01$  8.78$
|559>   Q  0.6645  3.98$  6.6$  4.58$
|560>   Q  0.6645  4.69$  7.79$  5.02$
|561>   Q  -1.3290  4.13$  7.4$  4.58$
|562>   Q  0.6645  15.09$  6.36$  5.52$
|563>   Q  0.6645  14.96$  7.85$  5.65$
|564>   Q  -1.3290  14.67$  7.09$  5.6$
|565>   Q  0.6645  13.18$  4.05$  17.09$
|566>   Q  0.6645  12.27$  3.24$  15.96$
|567>   Q  -1.3290  12.64$  3.93$  16.39$
|568>   Q  0.6645  2.59$  12.58$  15.57$
|569>   Q  0.6645  2.16$  11.15$  15.37$
|570>   Q  -1.3290  2.03$  11.99$  15.36$
|571>   Q  0.6645  20.94$  11.07$  6.43$
|572>   Q  0.6645  22.39$  10.52$  6.57$
|573>   Q  -1.3290  21.54$  10.5$  6.63$
|574>   Q  0.6645  17.37$  16.86$  3.13$
|575>   Q  0.6645  16.15$  15.98$  3$
|576>   Q  -1.3290  16.96$  16.17$  2.85$
|577>   Q  0.6645  18.14$  10.4$  3.92$
|578>   Q  0.6645  17.78$  9.29$  4.87$
|579>   Q  -1.3290  17.7$  10.05$  4.52$
|580>   Q  0.6645  11.22$  15.26$  20.88$
|581>   Q  0.6645  12.59$  14.71$  20.7$
|582>   Q  -1.3290  11.79$  14.78$  20.53$
|583>   Q  0.6645  8.36$  8.49$  16.73$
|584>   Q  0.6645  7.82$  7.69$  15.61$
|585>   Q  -1.3290  8.41$  8.15$  15.99$
|586>   Q  0.6645  7.33$  3.45$  3.84$
|587>   Q  0.6645  8.53$  4.32$  3.62$
|588>   Q  -1.3290  8.16$  3.64$  3.88$
|589>   Q  0.6645  15.38$  20.88$  7.97$
|590>   Q  0.6645  16.3$  19.61$  7.76$
|591>   Q  -1.3290  15.88$  20.35$  7.51$
|592>   Q  0.6645  9.57$  3.25$  13.11$
|593>   Q  0.6645  9.61$  2.8$  11.72$
|594>   Q  -1.3290  9.96$  3.07$  12.43$
|595>   Q  0.6645  19.85$  8.06$  17.23$
|596>   Q  0.6645  18.69$  8.32$  18.14$
|597>   Q  -1.3290  19.27$  7.83$  17.8$
|598>   Q  0.6645  20.34$  13.37$  13.21$
|599>   Q  0.6645  19.99$  14.81$  12.77$
|600>   Q  -1.3290  19.87$  14.04$  13.13$
|601>   Q  0.6645  15.65$  17.8$  18.23$
|602>   Q  0.6645  14.84$  18.06$  17.01$
|603>   Q  -1.3290  15.23$  18.31$  17.71$
|604>   Q  0.6645  9.77$  18.1$  18.61$
|605>   Q  0.6645  10.79$  19.28$  18.16$
|606>   Q  -1.3290  10.34$  18.55$  18.09$
|607>   Q  0.6645  7.72$  15.55$  9.87$
|608>   Q  0.6645  8.1$  14.59$  11.1$
|609>   Q  -1.3290  7.97$  14.84$  10.28$
|610>   Q  0.6645  17.36$  4.93$  11.99$
|611>   Q  0.6645  17.01$  3.69$  12.85$
|612>   Q  -1.3290  17.36$  4.12$  12.19$
|613>   Q  0.6645  7.48$  14.23$  19.19$
|614>   Q  0.6645  8.25$  13.72$  17.95$
|615>   Q  -1.3290  7.89$  14.3$  18.46$
|616>   Q  0.6645  12.7$  9.82$  18.37$
|617>   Q  0.6645  13.41$  10.88$  19.2$
|618>   Q  -1.3290  12.81$  10.6$  18.67$
|619>   Q  0.6645  20.7$  17.27$  11.23$
|620>   Q  0.6645  19.49$  16.36$  10.95$
|621>   Q  -1.3290  20.18$  16.62$  11.35$
|622>   Q  0.6645  3.21$  4.33$  5.11$
|623>   Q  0.6645  3.5$  4.77$  3.62$
|624>   Q  -1.3290  3.68$  4.64$  4.46$
|625>   Q  0.6645  12$  19.21$  7.14$
|626>   Q  0.6645  11.61$  18.6$  8.49$
|627>   Q  -1.3290  11.88$  18.59$  7.69$
|628>   Q  0.6645  5.65$  17.58$  9.9$
|629>   Q  0.6645  4.39$  18.46$  9.82$
|630>   Q  -1.3290  4.93$  17.89$  10.18$
|631>   Q  0.6645  21.43$  14.02$  16.99$
|632>   Q  0.6645  22.28$  12.82$  16.23$
|633>   Q  -1.3290  21.6$  13.37$  16.41$
|634>   Q  0.6645  11.02$  18.76$  13.56$
|635>   Q  0.6645  9.59$  19.06$  14.1$
|636>   Q  -1.3290  10.19$  18.68$  13.62$
|637>   Q  0.6645  7.76$  19.56$  6.72$
|638>   Q  0.6645  8.73$  18.98$  7.78$
|639>   Q  -1.3290  8.5$  19.51$  7.16$
|640>   Q  0.6645  10.88$  17.21$  6.32$
|641>   Q  0.6645  10.26$  16.54$  7.61$
|642>   Q  -1.3290  10.41$  16.65$  6.77$
|643>   Q  0.6645  7.52$  3.72$  14.3$
|644>   Q  0.6645  8.59$  4.72$  14$
|645>   Q  -1.3290  8.3$  4.06$  14.4$
|646>   Q  0.6645  6.89$  2.58$  6.69$
|647>   Q  0.6645  5.55$  1.73$  6.55$
|648>   Q  -1.3290  6.1$  2.29$  6.91$
|649>   Q  0.6645  6.23$  2.04$  8.93$
|650>   Q  0.6645  5.8$  1.04$  10.1$
|651>   Q  -1.3290  6.14$  1.74$  9.74$
|652> *
|653> 
|654>                          ****END OF INPUT****
================================================================================

                     *******************************
                     * Energy+Gradient Calculation *
                     *******************************

---------------------------------
CARTESIAN COORDINATES (ANGSTROEM)
---------------------------------
  C     12.650000   12.040000   11.120000
  H     12.430000   12.600000   10.180000
  H     13.490000   11.430000   10.850000
  C     11.480000   11.140000   11.610000
  H     11.670000   10.880000   12.630000
  H     10.620000   11.760000   11.410000
  C     11.370000    9.880000   10.850000
  H     11.050000    9.110000   11.640000
  H     12.370000    9.520000   10.520000
  C     10.320000    9.830000    9.760000
  H     10.330000    8.840000    9.260000
  H     10.600000   10.590000    8.970000
  O      9.020000   10.030000   10.260000
  H      8.360000    9.860000    9.540000
  O     13.020000   13.010000   12.080000
  H     13.450000   12.620000   12.870000
  O     12.240000   15.470000   12.480000
  H     12.720000   14.670000   12.110000
  H     11.710000   15.710000   11.720000
  O      7.070000   10.070000    8.430000
  H      7.000000    9.640000    7.570000
  H      7.190000   11.020000    8.440000
  O     15.960000   10.110000   12.570000
  H     15.540000    9.280000   12.840000
  H     15.790000   10.230000   11.570000
  O     10.190000   13.880000   14.110000
  H     10.040000   13.250000   13.330000
  H     10.860000   14.490000   13.780000
  O     14.880000   12.360000   14.150000
  H     15.220000   11.520000   13.780000
  H     14.260000   12.160000   14.880000
  O      8.870000    8.610000   12.600000
  H      8.850000    9.190000   11.800000
  H      8.360000    9.160000   13.180000
  O     13.530000   17.770000   11.600000
  H     14.460000   17.880000   11.760000
  H     13.350000   16.860000   11.860000
  O      8.680000   15.910000   12.870000
  H      9.320000   16.580000   12.900000
  H      8.860000   15.370000   13.670000
  O      6.580000    8.870000    5.990000
  H      7.310000    8.310000    5.700000
  H      6.440000    9.530000    5.260000
  O     10.610000   15.900000    9.770000
  H      9.900000   15.230000    9.960000
  H     11.230000   15.360000    9.270000
  O     13.450000   10.620000    7.680000
  H     13.150000    9.670000    7.990000
  H     12.630000   11.060000    7.700000
  O     12.190000   11.850000   15.790000
  H     11.830000   10.990000   15.720000
  H     11.570000   12.430000   15.290000
  O     11.880000    6.780000    9.850000
  H     10.980000    6.600000   10.080000
  H     12.190000    5.900000    9.940000
  O      9.450000   13.040000   16.610000
  H     10.150000   12.900000   17.260000
  H      9.790000   13.490000   15.840000
  O     15.310000   10.490000    9.640000
  H     14.650000   10.690000    9.030000
  H     16.030000   11.110000    9.410000
  O     12.300000   14.880000    8.220000
  H     12.120000   15.600000    7.580000
  H     12.110000   14.010000    7.810000
  O      8.710000   11.650000    5.670000
  H      8.470000   11.960000    6.600000
  H      8.800000   10.720000    5.680000
  O     12.690000    7.950000    7.600000
  H     12.390000    7.290000    8.250000
  H     13.170000    7.390000    7.000000
  O     14.720000    8.500000   14.380000
  H     14.730000    8.730000   15.320000
  H     14.110000    7.730000   14.230000
  O      7.730000   12.850000    7.950000
  H      7.930000   13.430000    8.670000
  H      6.870000   13.190000    7.690000
  O      5.420000    7.690000    9.360000
  H      5.740000    7.050000    8.720000
  H      5.930000    8.490000    9.300000
  O     17.580000   10.160000   14.790000
  H     18.420000   10.720000   14.840000
  H     17.410000   10.000000   13.850000
  O      8.030000   12.360000   12.710000
  H      8.270000   11.730000   12.060000
  H      7.990000   11.770000   13.520000
  O     15.760000   15.030000   14.500000
  H     15.160000   15.670000   14.870000
  H     15.440000   14.170000   14.580000
  O     11.230000    9.340000   15.100000
  H     11.890000    8.650000   15.120000
  H     10.340000    9.000000   15.170000
  Q     15.960000    8.810000    8.780000
  Q     17.300000    8.200000    8.820000
  Q     16.520000    8.270000    8.520000
  Q     11.300000   12.040000   18.860000
  Q     11.040000   13.270000   19.630000
  Q     10.790000   12.620000   19.160000
  Q      1.930000    8.940000   14.980000
  Q      2.840000    9.010000   16.280000
  Q      2.570000    9.250000   15.480000
  Q      6.070000   19.100000   12.940000
  Q      7.110000   20.150000   13.490000
  Q      6.450000   19.860000   12.990000
  Q     13.190000   14.330000    4.320000
  Q     13.160000   13.080000    3.570000
  Q     13.080000   13.520000    4.270000
  Q      3.130000   10.650000    7.660000
  Q      2.240000   11.270000    8.530000
  Q      3.010000   10.990000    8.340000
  Q      5.650000    1.960000   14.370000
  Q      5.630000    3.360000   15.140000
  Q      5.680000    2.800000   14.460000
  Q     16.730000   16.250000   20.250000
  Q     15.850000   17.540000   20.380000
  Q     16.410000   17.010000   20.030000
  Q     16.800000   14.550000   18.730000
  Q     17.050000   14.350000   17.170000
  Q     16.730000   14.700000   17.880000
  Q      0.240000   14.330000   11.940000
  Q     -0.040000   15.080000   10.820000
  Q      0.200000   14.400000   11.140000
  Q     16.300000   12.510000   17.470000
  Q     17.790000   12.330000   17.930000
  Q     16.950000   12.110000   17.860000
  Q      6.170000   11.950000    4.300000
  Q      5.160000   10.980000    3.840000
  Q      5.930000   11.200000    3.990000
  Q      5.950000    7.090000   11.100000
  Q      6.280000    5.760000   11.510000
  Q      6.340000    6.570000   11.560000
  Q     17.230000   13.940000   21.290000
  Q     18.400000   14.590000   20.550000
  Q     17.590000   14.360000   20.660000
  Q      9.210000   10.920000   21.370000
  Q      9.450000   11.720000   19.990000
  Q      9.020000   11.270000   20.600000
  Q     13.710000   18.400000   18.810000
  Q     12.240000   18.030000   18.760000
  Q     12.930000   18.430000   19.080000
  Q      4.580000   15.630000    9.410000
  Q      3.630000   14.640000   10.260000
  Q      3.970000   15.020000    9.560000
  Q      4.610000   13.870000    8.370000
  Q      4.430000   12.360000    8.160000
  Q      4.750000   13.120000    7.980000
  Q      2.650000   16.030000    8.640000
  Q      1.300000   16.140000    8.030000
  Q      1.950000   16.480000    8.430000
  Q     15.900000   15.620000    9.500000
  Q     14.520000   15.010000    9.080000
  Q     15.330000   15.230000    8.960000
  Q     10.730000   12.140000    6.310000
  Q     12.000000   12.880000    6.080000
  Q     11.410000   12.550000    6.580000
  Q     15.130000   19.830000    5.810000
  Q     14.080000   19.960000    4.670000
  Q     14.780000   19.690000    5.040000
  Q     14.760000   12.370000    2.010000
  Q     13.760000   11.360000    2.330000
  Q     13.990000   12.120000    2.130000
  Q     14.260000    4.670000    9.040000
  Q     12.980000    4.490000    8.140000
  Q     13.440000    4.450000    8.860000
  Q     16.700000    5.440000    5.200000
  Q     15.690000    4.300000    5.090000
  Q     16.090000    4.970000    5.450000
  Q      3.080000   11.260000    2.720000
  Q      3.100000   12.490000    3.570000
  Q      3.240000   11.670000    3.420000
  Q      7.520000   10.820000   17.770000
  Q      8.740000   11.180000   16.950000
  Q      8.220000   10.680000   17.330000
  Q     17.580000    4.810000   16.340000
  Q     16.390000    4.530000   15.450000
  Q     16.800000    4.930000   16.050000
  Q      9.240000   16.700000    3.090000
  Q      8.750000   17.810000    2.190000
  Q      9.260000   17.470000    2.760000
  Q     13.810000    8.910000    2.840000
  Q     14.810000    9.740000    3.590000
  Q     14.500000    9.370000    2.910000
  Q     -0.050000    6.240000    8.700000
  Q      0.130000    5.470000   10.000000
  Q      0.270000    6.090000    9.450000
  Q      9.360000    6.520000   16.950000
  Q      8.700000    5.280000   16.240000
  Q      9.040000    5.740000   16.870000
  Q     15.190000    9.090000   20.360000
  Q     15.720000    8.170000   21.480000
  Q     15.210000    8.400000   20.850000
  Q     17.540000   18.720000    9.840000
  Q     17.800000   20.180000    9.710000
  Q     17.300000   19.480000    9.830000
  Q      0.820000   12.920000    9.580000
  Q     -0.320000   11.950000    8.910000
  Q      0.450000   12.390000    8.980000
  Q     15.190000   13.920000    6.930000
  Q     14.920000   12.880000    5.800000
  Q     15.390000   13.390000    6.280000
  Q     15.480000    4.920000   17.410000
  Q     14.470000    5.440000   18.400000
  Q     14.890000    4.840000   18.010000
  Q      7.950000   14.700000    1.560000
  Q      6.470000   14.250000    1.550000
  Q      7.160000   14.730000    1.820000
  Q     13.810000    2.580000    9.590000
  Q     15.190000    1.840000    9.880000
  Q     14.350000    1.960000    9.890000
  Q     11.770000    2.740000    5.250000
  Q     11.200000    1.600000    4.310000
  Q     11.810000    2.080000    4.720000
  Q     14.480000   13.680000   17.940000
  Q     13.400000   12.590000   17.350000
  Q     14.180000   12.960000   17.530000
  Q     15.810000    5.390000    7.660000
  Q     16.160000    6.420000    8.770000
  Q     16.000000    5.630000    8.440000
  Q     16.940000   17.800000   12.810000
  Q     16.050000   16.440000   13.120000
  Q     16.360000   17.070000   12.640000
  Q     14.320000   20.380000   11.160000
  Q     15.800000   19.870000   11.230000
  Q     15.080000   20.220000   11.520000
  Q      9.930000    5.980000   12.590000
  Q      9.280000    7.090000   13.180000
  Q      9.530000    6.310000   13.190000
  Q     20.090000    7.960000   11.090000
  Q     21.440000    7.420000   10.780000
  Q     20.880000    7.770000   11.280000
  Q     14.360000   17.960000    5.670000
  Q     13.300000   17.650000    6.710000
  Q     13.860000   17.460000    6.120000
  Q     11.860000    8.290000   17.130000
  Q     11.040000    7.980000   18.440000
  Q     11.740000    8.150000   17.990000
  Q      2.100000    6.720000    8.750000
  Q      3.640000    7.280000    8.640000
  Q      2.850000    6.940000    8.400000
  Q      4.210000    9.330000   14.240000
  Q      4.690000    8.330000   13.060000
  Q      4.760000    8.900000   13.720000
  Q     17.880000    5.380000    3.250000
  Q     17.670000    6.890000    3.750000
  Q     17.470000    6.160000    3.290000
  Q     18.910000   18.620000   15.910000
  Q     18.220000   18.580000   17.210000
  Q     18.450000   18.940000   16.500000
  Q     13.480000    1.940000   11.690000
  Q     12.070000    2.550000   12.160000
  Q     12.890000    2.290000   12.240000
  Q     19.520000    7.420000   14.420000
  Q     20.500000    7.120000   13.270000
  Q     20.280000    7.240000   14.080000
  Q      8.730000    5.030000    7.340000
  Q      9.170000    6.380000    6.810000
  Q      9.150000    5.740000    7.370000
  Q     15.510000   11.410000   19.480000
  Q     15.450000   11.050000   20.930000
  Q     15.180000   11.030000   20.110000
  Q     12.900000   20.490000    9.560000
  Q     12.630000   19.180000   10.350000
  Q     12.530000   19.990000   10.140000
  Q      0.510000    8.150000    6.560000
  Q      1.860000    7.400000    6.990000
  Q      1.240000    7.680000    6.430000
  Q      4.050000   16.670000    5.590000
  Q      4.850000   17.140000    4.310000
  Q      4.290000   17.260000    4.990000
  Q      8.770000   15.740000   19.010000
  Q      8.160000   16.900000   19.670000
  Q      8.790000   16.430000   19.470000
  Q     17.800000    7.190000    6.410000
  Q     19.110000    6.880000    5.650000
  Q     18.350000    7.230000    5.770000
  Q      6.950000    4.100000   19.120000
  Q      8.100000    4.960000   18.430000
  Q      7.520000    4.770000   19.020000
  Q     19.350000   11.000000    8.230000
  Q     20.290000    9.870000    8.350000
  Q     19.870000   10.520000    8.670000
  Q     19.910000   15.400000    8.300000
  Q     20.450000   16.320000    7.110000
  Q     19.890000   16.080000    7.730000
  Q     20.670000   11.870000   15.420000
  Q     20.890000   11.080000   14.160000
  Q     20.470000   11.300000   14.850000
  Q      9.650000    5.640000    2.300000
  Q      8.490000    6.640000    2.210000
  Q      8.960000    6.070000    2.580000
  Q     13.280000    6.660000   11.340000
  Q     14.000000    5.660000   12.050000
  Q     13.950000    6.360000   11.640000
  Q      6.500000    9.980000   14.260000
  Q      7.750000    9.810000   15.130000
  Q      7.300000   10.130000   14.470000
  Q      9.650000    1.160000    8.550000
  Q      9.260000   -0.070000    7.550000
  Q      9.530000    0.730000    7.790000
  Q     10.050000   17.460000    9.650000
  Q      9.680000   18.950000   10.010000
  Q      9.680000   18.220000    9.540000
  Q     16.340000   13.220000    8.680000
  Q     17.370000   12.950000    9.750000
  Q     16.870000   12.770000    9.110000
  Q      5.770000    3.220000   11.090000
  Q      5.630000    3.620000   12.620000
  Q      5.650000    3.760000   11.760000
  Q      0.430000   13.680000    7.610000
  Q      1.400000   14.640000    6.740000
  Q      0.670000   14.450000    7.200000
  Q      5.730000   16.990000   14.000000
  Q      7.240000   16.750000   13.600000
  Q      6.540000   16.690000   14.100000
  Q      4.660000    7.620000    1.530000
  Q      4.490000    8.080000    2.870000
  Q      4.750000    8.150000    2.110000
  Q     17.450000   14.690000    3.850000
  Q     17.020000   13.610000    4.950000
  Q     17.560000   14.000000    4.360000
  Q     11.340000    3.750000    1.940000
  Q     10.020000    3.450000    1.150000
  Q     10.630000    3.930000    1.540000
  Q     19.980000   12.840000   17.490000
  Q     19.940000   12.440000   19.030000
  Q     19.670000   12.810000   18.300000
  Q     11.930000    7.270000    3.080000
  Q     12.060000    7.910000    1.540000
  Q     11.850000    7.860000    2.420000
  Q      5.820000    7.330000   14.490000
  Q      6.880000    6.720000   13.730000
  Q      6.490000    6.870000   14.460000
  Q     10.010000   14.450000    3.370000
  Q      9.830000   15.140000    4.690000
  Q      9.750000   15.060000    3.870000
  Q     11.740000    3.800000   19.660000
  Q     11.220000    4.310000   18.230000
  Q     11.160000    4.060000   19.050000
  Q     16.010000    2.290000   13.890000
  Q     15.240000    3.590000   13.910000
  Q     15.870000    3.080000   14.120000
  Q      4.380000    5.220000   15.630000
  Q      5.730000    5.750000   16.030000
  Q      5.100000    5.170000   16.050000
  Q      2.250000    9.200000    5.820000
  Q      2.750000   10.510000    5.000000
  Q      2.400000   10.060000    5.670000
  Q     16.840000   21.530000   16.800000
  Q     16.490000   20.140000   16.300000
  Q     16.400000   20.970000   16.330000
  Q      9.450000   20.630000   11.780000
  Q     10.730000   20.770000   10.970000
  Q      9.910000   20.790000   11.090000
  Q     10.040000   19.010000    5.620000
  Q      9.990000   18.330000    4.210000
  Q     10.410000   18.710000    4.890000
  Q      2.680000    7.550000   12.430000
  Q      3.270000    6.500000   11.470000
  Q      3.280000    7.000000   12.120000
  Q      0.910000   11.830000   13.270000
  Q      0.360000   11.840000   11.800000
  Q      0.320000   11.840000   12.670000
  Q      4.070000   13.540000   13.000000
  Q      2.720000   14.110000   12.640000
  Q      3.470000   13.770000   12.470000
  Q      4.000000   17.560000   12.380000
  Q      3.530000   18.630000   13.350000
  Q      3.930000   17.930000   13.150000
  Q     18.100000   11.440000    5.950000
  Q     17.720000   12.160000    7.250000
  Q     18.260000   11.850000    6.680000
  Q      8.770000    2.280000   15.460000
  Q      8.660000    1.180000   16.490000
  Q      8.900000    1.500000   15.740000
  Q      8.200000    1.690000   10.100000
  Q      9.330000    0.850000   10.580000
  Q      9.000000    1.540000   10.270000
  Q     14.300000   10.260000    6.310000
  Q     15.790000   10.130000    5.680000
  Q     14.900000    9.980000    5.730000
  Q     19.610000   17.230000   14.270000
  Q     19.780000   16.530000   15.660000
  Q     19.920000   17.140000   15.040000
  Q     10.740000   11.590000    3.560000
  Q     11.070000   10.340000    2.780000
  Q     11.020000   10.830000    3.470000
  Q     10.720000    1.450000   15.140000
  Q     11.970000    1.520000   14.220000
  Q     11.560000    1.580000   14.960000
  Q     13.330000    3.720000   13.110000
  Q     13.140000    4.580000   14.340000
  Q     13.430000    4.400000   13.590000
  Q      2.670000    6.470000   15.250000
  Q      3.240000    6.150000   13.810000
  Q      3.050000    6.020000   14.650000
  Q     17.150000    6.880000   12.770000
  Q     15.970000    6.710000   11.680000
  Q     16.790000    6.750000   11.950000
  Q     17.510000    8.190000   14.860000
  Q     17.150000    6.720000   15.120000
  Q     17.490000    7.360000   14.720000
  Q     19.110000   10.960000   19.650000
  Q     20.550000   10.690000   20.290000
  Q     19.720000   11.040000   20.250000
  Q     18.800000    9.310000   10.160000
  Q     17.750000    8.150000   10.790000
  Q     18.350000    8.530000   10.230000
  Q      8.950000    2.440000    7.040000
  Q      8.880000    3.040000    5.720000
  Q      8.710000    3.010000    6.510000
  Q     17.170000    3.220000   10.360000
  Q     17.060000    3.460000    8.870000
  Q     17.050000    2.950000    9.590000
  Q      8.190000   16.300000    6.170000
  Q      6.990000   15.350000    5.760000
  Q      7.400000   15.950000    6.200000
  Q      3.450000    3.810000   11.800000
  Q      2.170000    3.690000   12.720000
  Q      2.620000    3.710000   12.000000
  Q     20.720000    9.970000   16.030000
  Q     21.520000    8.640000   16.420000
  Q     21.070000    9.360000   16.570000
  Q      1.680000    9.650000   12.270000
  Q      0.410000    8.830000   12.190000
  Q      1.190000    9.050000   12.530000
  Q      3.670000   14.220000    6.390000
  Q      3.060000   14.820000    5.150000
  Q      3.240000   14.810000    5.980000
  Q     13.370000   19.910000   14.820000
  Q     13.630000   19.420000   13.320000
  Q     13.240000   19.460000   14.110000
  Q      7.870000    8.090000    0.990000
  Q      8.710000    7.080000    0.200000
  Q      8.030000    7.370000    0.580000
  Q     13.970000   16.450000    4.490000
  Q     13.470000   16.400000    3.050000
  Q     13.980000   16.190000    3.680000
  Q     12.010000   13.270000    1.420000
  Q     10.730000   14.000000    1.140000
  Q     11.170000   13.410000    1.520000
  Q      9.150000   18.610000   16.510000
  Q      7.930000   17.920000   15.990000
  Q      8.470000   18.560000   16.070000
  Q      6.290000   16.450000   16.030000
  Q      6.910000   15.960000   17.400000
  Q      6.430000   16.440000   16.880000
  Q     12.320000    5.760000   15.700000
  Q     11.370000    6.430000   14.740000
  Q     12.020000    6.400000   15.260000
  Q     11.870000    4.920000    5.900000
  Q     10.920000    4.830000    7.160000
  Q     11.630000    4.680000    6.680000
  Q     10.980000    9.900000    0.230000
  Q     10.650000   11.400000    0.690000
  Q     10.540000   10.540000    0.670000
  Q     13.320000    6.090000    4.660000
  Q     13.000000    5.080000    3.560000
  Q     12.820000    5.660000    4.140000
  Q     10.760000    9.860000    5.240000
  Q     11.330000    8.930000    6.430000
  Q     10.720000    9.350000    5.950000
  Q     20.900000   13.810000    5.810000
  Q     19.570000   12.900000    5.810000
  Q     20.440000   13.140000    5.630000
  Q     16.720000   13.480000   12.100000
  Q     18.310000   13.520000   12.130000
  Q     17.510000   13.490000   11.770000
  Q     11.290000   16.740000   17.630000
  Q     11.990000   15.490000   18.260000
  Q     11.900000   16.150000   17.730000
  Q     17.360000   15.200000   15.150000
  Q     18.620000   14.660000   14.610000
  Q     18.160000   15.000000   15.230000
  Q      7.300000   13.860000    3.490000
  Q      7.680000   13.040000    4.840000
  Q      7.180000   13.490000    4.270000
  Q     14.160000    6.840000   20.220000
  Q     12.850000    6.910000   19.410000
  Q     13.440000    6.510000   19.860000
  Q     16.980000    8.840000   18.340000
  Q     17.110000   10.220000   18.150000
  Q     17.400000    9.490000   18.360000
  Q     18.320000   16.770000   18.730000
  Q     18.620000   15.740000   17.690000
  Q     18.800000   16.400000   18.140000
  Q     15.910000   16.950000    6.960000
  Q     17.490000   16.500000    6.860000
  Q     16.770000   16.930000    6.680000
  Q      8.660000    6.970000    4.620000
  Q      9.400000    8.040000    5.570000
  Q      8.830000    7.420000    5.330000
  Q      8.760000    9.920000    1.820000
  Q      7.440000    9.910000    2.770000
  Q      7.980000    9.660000    2.110000
  Q     15.830000   10.420000   16.080000
  Q     14.870000   10.590000   17.140000
  Q     15.380000   10.140000   16.680000
  Q      6.230000   14.560000   14.410000
  Q      6.800000   13.290000   13.630000
  Q      6.200000   13.760000   14.090000
  Q      1.100000    6.610000    3.020000
  Q      1.940000    7.660000    3.750000
  Q      1.480000    7.370000    3.120000
  Q     13.530000   17.110000   15.010000
  Q     13.260000   16.370000   16.290000
  Q     13.740000   16.710000   15.710000
  Q      4.650000   13.660000   15.520000
  Q      4.120000   13.910000   16.910000
  Q      4.030000   13.810000   16.110000
  Q     19.180000   18.120000   12.040000
  Q     18.870000   19.300000   12.780000
  Q     18.790000   18.510000   12.630000
  Q      9.120000    9.420000   19.180000
  Q      8.460000    8.170000   19.610000
  Q      9.100000    8.590000   19.330000
  Q      5.780000    4.860000    7.000000
  Q      4.660000    5.750000    6.680000
  Q      5.350000    5.540000    7.090000
  Q     15.280000    2.790000    3.400000
  Q     14.190000    2.470000    4.600000
  Q     14.980000    2.710000    4.250000
  Q      8.450000    6.650000   10.840000
  Q      8.980000    6.000000    9.570000
  Q      8.980000    6.180000   10.400000
  Q      2.850000   10.840000   10.520000
  Q      3.020000   12.020000   11.580000
  Q      2.670000   11.310000   11.210000
  Q     17.040000   16.630000   10.890000
  Q     17.590000   15.310000   10.470000
  Q     17.550000   16.130000   10.480000
  Q      7.650000   17.650000    9.010000
  Q      7.130000   16.560000    8.020000
  Q      7.170000   17.010000    8.780000
  Q      3.980000    6.600000    4.580000
  Q      4.690000    7.790000    5.020000
  Q      4.130000    7.400000    4.580000
  Q     15.090000    6.360000    5.520000
  Q     14.960000    7.850000    5.650000
  Q     14.670000    7.090000    5.600000
  Q     13.180000    4.050000   17.090000
  Q     12.270000    3.240000   15.960000
  Q     12.640000    3.930000   16.390000
  Q      2.590000   12.580000   15.570000
  Q      2.160000   11.150000   15.370000
  Q      2.030000   11.990000   15.360000
  Q     20.940000   11.070000    6.430000
  Q     22.390000   10.520000    6.570000
  Q     21.540000   10.500000    6.630000
  Q     17.370000   16.860000    3.130000
  Q     16.150000   15.980000    3.000000
  Q     16.960000   16.170000    2.850000
  Q     18.140000   10.400000    3.920000
  Q     17.780000    9.290000    4.870000
  Q     17.700000   10.050000    4.520000
  Q     11.220000   15.260000   20.880000
  Q     12.590000   14.710000   20.700000
  Q     11.790000   14.780000   20.530000
  Q      8.360000    8.490000   16.730000
  Q      7.820000    7.690000   15.610000
  Q      8.410000    8.150000   15.990000
  Q      7.330000    3.450000    3.840000
  Q      8.530000    4.320000    3.620000
  Q      8.160000    3.640000    3.880000
  Q     15.380000   20.880000    7.970000
  Q     16.300000   19.610000    7.760000
  Q     15.880000   20.350000    7.510000
  Q      9.570000    3.250000   13.110000
  Q      9.610000    2.800000   11.720000
  Q      9.960000    3.070000   12.430000
  Q     19.850000    8.060000   17.230000
  Q     18.690000    8.320000   18.140000
  Q     19.270000    7.830000   17.800000
  Q     20.340000   13.370000   13.210000
  Q     19.990000   14.810000   12.770000
  Q     19.870000   14.040000   13.130000
  Q     15.650000   17.800000   18.230000
  Q     14.840000   18.060000   17.010000
  Q     15.230000   18.310000   17.710000
  Q      9.770000   18.100000   18.610000
  Q     10.790000   19.280000   18.160000
  Q     10.340000   18.550000   18.090000
  Q      7.720000   15.550000    9.870000
  Q      8.100000   14.590000   11.100000
  Q      7.970000   14.840000   10.280000
  Q     17.360000    4.930000   11.990000
  Q     17.010000    3.690000   12.850000
  Q     17.360000    4.120000   12.190000
  Q      7.480000   14.230000   19.190000
  Q      8.250000   13.720000   17.950000
  Q      7.890000   14.300000   18.460000
  Q     12.700000    9.820000   18.370000
  Q     13.410000   10.880000   19.200000
  Q     12.810000   10.600000   18.670000
  Q     20.700000   17.270000   11.230000
  Q     19.490000   16.360000   10.950000
  Q     20.180000   16.620000   11.350000
  Q      3.210000    4.330000    5.110000
  Q      3.500000    4.770000    3.620000
  Q      3.680000    4.640000    4.460000
  Q     12.000000   19.210000    7.140000
  Q     11.610000   18.600000    8.490000
  Q     11.880000   18.590000    7.690000
  Q      5.650000   17.580000    9.900000
  Q      4.390000   18.460000    9.820000
  Q      4.930000   17.890000   10.180000
  Q     21.430000   14.020000   16.990000
  Q     22.280000   12.820000   16.230000
  Q     21.600000   13.370000   16.410000
  Q     11.020000   18.760000   13.560000
  Q      9.590000   19.060000   14.100000
  Q     10.190000   18.680000   13.620000
  Q      7.760000   19.560000    6.720000
  Q      8.730000   18.980000    7.780000
  Q      8.500000   19.510000    7.160000
  Q     10.880000   17.210000    6.320000
  Q     10.260000   16.540000    7.610000
  Q     10.410000   16.650000    6.770000
  Q      7.520000    3.720000   14.300000
  Q      8.590000    4.720000   14.000000
  Q      8.300000    4.060000   14.400000
  Q      6.890000    2.580000    6.690000
  Q      5.550000    1.730000    6.550000
  Q      6.100000    2.290000    6.910000
  Q      6.230000    2.040000    8.930000
  Q      5.800000    1.040000   10.100000
  Q      6.140000    1.740000    9.740000

----------------------------
CARTESIAN COORDINATES (A.U.)
----------------------------
  NO LB      ZA    FRAG     MASS         X           Y           Z
   0 C     6.0000    0    12.011   23.905036   22.752303   21.013755
   1 H     1.0000    0     1.008   23.489296   23.810549   19.237412
   2 H     1.0000    0     1.008   25.492406   21.599570   20.503529
   3 C     6.0000    0    12.011   21.694056   21.051549   21.939720
   4 H     1.0000    0     1.008   22.053104   20.560220   23.867241
   5 H     1.0000    0     1.008   20.068892   22.223179   21.561775
   6 C     6.0000    0    12.011   21.486186   18.670494   20.503529
   7 H     1.0000    0     1.008   20.881474   17.215405   21.996412
   8 H     1.0000    0     1.008   23.375912   17.990193   19.879919
   9 C     6.0000    0    12.011   19.501974   18.576008   18.443727
  10 H     1.0000    0     1.008   19.520871   16.705179   17.498864
  11 H     1.0000    0     1.008   20.031097   20.012200   16.950843
  12 O     8.0000    0    15.999   17.045330   18.953953   19.388590
  13 H     1.0000    0     1.008   15.798110   18.632700   18.027987
  14 O     8.0000    0    15.999   24.604234   24.585337   22.827892
  15 H     1.0000    0     1.008   25.416817   23.848344   24.320775
  16 O     8.0000    0    15.999   23.130248   29.234063   23.583782
  17 H     1.0000    0     1.008   24.037316   27.722282   22.884583
  18 H     1.0000    0     1.008   22.128693   29.687598   22.147590
  19 O     8.0000    0    15.999   13.360364   19.029542   15.930391
  20 H     1.0000    0     1.008   13.228083   18.216960   14.305227
  21 H     1.0000    0     1.008   13.587131   20.824782   15.949289
  22 O     8.0000    0    15.999   30.160029   19.105131   23.753858
  23 H     1.0000    0     1.008   29.366344   17.536659   24.264084
  24 H     1.0000    0     1.008   29.838776   19.331898   21.864131
  25 O     8.0000    0    15.999   19.256309   26.229399   26.664036
  26 H     1.0000    0     1.008   18.972850   25.038871   25.190049
  27 H     1.0000    0     1.008   20.522426   27.382132   26.040426
  28 O     8.0000    0    15.999   28.119125   23.357015   26.739625
  29 H     1.0000    0     1.008   28.761632   21.769645   26.040426
  30 H     1.0000    0     1.008   26.947495   22.979070   28.119125
  31 O     8.0000    0    15.999   16.761871   16.270542   23.810549
  32 H     1.0000    0     1.008   16.724076   17.366583   22.298768
  33 H     1.0000    0     1.008   15.798110   17.309891   24.906590
  34 O     8.0000    0    15.999   25.567995   33.580433   21.920823
  35 H     1.0000    0     1.008   27.325440   33.788303   22.223179
  36 H     1.0000    0     1.008   25.227844   31.860783   22.412152
  37 O     8.0000    0    15.999   16.402823   30.065543   24.320775
  38 H     1.0000    0     1.008   17.612248   31.331659   24.377467
  39 H     1.0000    0     1.008   16.742974   29.045091   25.832556
  40 O     8.0000    0    15.999   12.434398   16.761871   11.319460
  41 H     1.0000    0     1.008   13.813898   15.703624   10.771439
  42 H     1.0000    0     1.008   12.169836   18.009090    9.939959
  43 O     8.0000    0    15.999   20.049994   30.046646   18.462624
  44 H     1.0000    0     1.008   18.708289   28.780529   18.821672
  45 H     1.0000    0     1.008   21.221624   29.026193   17.517761
  46 O     8.0000    0    15.999   25.416817   20.068892   14.513097
  47 H     1.0000    0     1.008   24.849899   18.273652   15.098912
  48 H     1.0000    0     1.008   23.867241   20.900371   14.550891
  49 O     8.0000    0    15.999   23.035762   22.393255   29.838776
  50 H     1.0000    0     1.008   22.355460   20.768090   29.706495
  51 H     1.0000    0     1.008   21.864131   23.489296   28.893913
  52 O     8.0000    0    15.999   22.449946   12.812343   18.613802
  53 H     1.0000    0     1.008   20.749193   12.472192   19.048439
  54 H     1.0000    0     1.008   23.035762   11.149384   18.783878
  55 O     8.0000    0    15.999   17.857912   24.642029   31.388351
  56 H     1.0000    0     1.008   19.180720   24.377467   32.616673
  57 H     1.0000    0     1.008   18.500419   25.492406   29.933262
  58 O     8.0000    0    15.999   28.931707   19.823227   18.216960
  59 H     1.0000    0     1.008   27.684488   20.201172   17.064227
  60 H     1.0000    0     1.008   30.292310   20.994857   17.782323
  61 O     8.0000    0    15.999   23.243631   28.119125   15.533549
  62 H     1.0000    0     1.008   22.903481   29.479728   14.324124
  63 H     1.0000    0     1.008   22.884583   26.475063   14.758761
  64 O     8.0000    0    15.999   16.459515   22.015309   10.714747
  65 H     1.0000    0     1.008   16.005980   22.601125   12.472192
  66 H     1.0000    0     1.008   16.629590   20.257864   10.733644
  67 O     8.0000    0    15.999   23.980625   15.023323   14.361919
  68 H     1.0000    0     1.008   23.413707   13.776104   15.590241
  69 H     1.0000    0     1.008   24.887693   13.965076   13.228083
  70 O     8.0000    0    15.999   27.816769   16.062672   27.174262
  71 H     1.0000    0     1.008   27.835666   16.497309   28.950604
  72 H     1.0000    0     1.008   26.664036   14.607583   26.890803
  73 O     8.0000    0    15.999   14.607583   24.282981   15.023323
  74 H     1.0000    0     1.008   14.985528   25.379022   16.383926
  75 H     1.0000    0     1.008   12.982419   24.925488   14.531994
  76 O     8.0000    0    15.999   10.242316   14.531994   17.687837
  77 H     1.0000    0     1.008   10.847028   13.322569   16.478412
  78 H     1.0000    0     1.008   11.206076   16.043775   17.574453
  79 O     8.0000    0    15.999   33.221385   19.199618   27.949050
  80 H     1.0000    0     1.008   34.808755   20.257864   28.043536
  81 H     1.0000    0     1.008   32.900132   18.897261   26.172707
  82 O     8.0000    0    15.999   15.174501   23.357015   24.018419
  83 H     1.0000    0     1.008   15.628035   22.166488   22.790097
  84 H     1.0000    0     1.008   15.098912   22.242077   25.549097
  85 O     8.0000    0    15.999   29.782084   28.402584   27.401029
  86 H     1.0000    0     1.008   28.648248   29.612009   28.100228
  87 H     1.0000    0     1.008   29.177372   26.777419   27.552207
  88 O     8.0000    0    15.999   21.221624   17.650042   28.534865
  89 H     1.0000    0     1.008   22.468844   16.346131   28.572659
  90 H     1.0000    0     1.008   19.539768   17.007535   28.667145
  91 Q     0.6645    0     0.000   30.160029   16.648487   16.591795
  92 Q     0.6645    0     0.000   32.692262   15.495754   16.667385
  93 Q    -1.3290    0     0.000   31.218276   15.628035   16.100467
  94 Q     0.6645    0     0.000   21.353905   22.752303   35.640235
  95 Q     0.6645    0     0.000   20.862577   25.076666   37.095324
  96 Q    -1.3290    0     0.000   20.390145   23.848344   36.207153
  97 Q     0.6645    0     0.000    3.647171   16.894152   28.308097
  98 Q     0.6645    0     0.000    5.366822   17.026432   30.764741
  99 Q    -1.3290    0     0.000    4.856596   17.479967   29.252961
 100 Q     0.6645    0     0.000   11.470638   36.093769   24.453056
 101 Q     0.6645    0     0.000   13.435953   38.077982   25.492406
 102 Q    -1.3290    0     0.000   12.188734   37.529961   24.547542
 103 Q     0.6645    0     0.000   24.925488   27.079775    8.163617
 104 Q     0.6645    0     0.000   24.868796   24.717618    6.746322
 105 Q    -1.3290    0     0.000   24.717618   25.549097    8.069131
 106 Q     0.6645    0     0.000    5.914843   20.125583   14.475302
 107 Q     0.6645    0     0.000    4.232987   21.297214   16.119364
 108 Q    -1.3290    0     0.000    5.688076   20.768090   15.760316
 109 Q     0.6645    0     0.000   10.676953    3.703863   27.155365
 110 Q     0.6645    0     0.000   10.639158    6.349480   28.610454
 111 Q    -1.3290    0     0.000   10.733644    5.291233   27.325440
 112 Q     0.6645    0     0.000   31.615118   30.708050   38.266954
 113 Q     0.6645    0     0.000   29.952159   33.145796   38.512619
 114 Q    -1.3290    0     0.000   31.010406   32.144242   37.851214
 115 Q     0.6645    0     0.000   31.747399   27.495515   35.394570
 116 Q     0.6645    0     0.000   32.219831   27.117570   32.446598
 117 Q    -1.3290    0     0.000   31.615118   27.778974   33.788303
 118 Q     0.6645    0     0.000    0.453534   27.079775   22.563330
 119 Q     0.6645    0     0.000   -0.075589   28.497070   20.446837
 120 Q    -1.3290    0     0.000    0.377945   27.212056   21.051549
 121 Q     0.6645    0     0.000   30.802536   23.640474   33.013516
 122 Q     0.6645    0     0.000   33.618228   23.300323   33.882790
 123 Q    -1.3290    0     0.000   32.030858   22.884583   33.750509
 124 Q     0.6645    0     0.000   11.659610   22.582227    8.125822
 125 Q     0.6645    0     0.000    9.750987   20.749193    7.256548
 126 Q    -1.3290    0     0.000   11.206076   21.164933    7.540007
 127 Q     0.6645    0     0.000   11.243870   13.398158   20.975960
 128 Q     0.6645    0     0.000   11.867480   10.884823   21.750748
 129 Q    -1.3290    0     0.000   11.980864   12.415501   21.845234
 130 Q     0.6645    0     0.000   32.559981   26.342782   40.232269
 131 Q     0.6645    0     0.000   34.770961   27.571104   38.833872
 132 Q    -1.3290    0     0.000   33.240283   27.136467   39.041742
 133 Q     0.6645    0     0.000   17.404378   20.635809   40.383447
 134 Q     0.6645    0     0.000   17.857912   22.147590   37.775625
 135 Q    -1.3290    0     0.000   17.045330   21.297214   38.928358
 136 Q     0.6645    0     0.000   25.908145   34.770961   35.545749
 137 Q     0.6645    0     0.000   23.130248   34.071762   35.451262
 138 Q    -1.3290    0     0.000   24.434159   34.827653   36.055975
 139 Q     0.6645    0     0.000    8.654946   29.536419   17.782323
 140 Q     0.6645    0     0.000    6.859706   27.665591   19.388590
 141 Q    -1.3290    0     0.000    7.502213   28.383687   18.065782
 142 Q     0.6645    0     0.000    8.711637   26.210501   15.817008
 143 Q     0.6645    0     0.000    8.371487   23.357015   15.420165
 144 Q    -1.3290    0     0.000    8.976199   24.793207   15.080015
 145 Q     0.6645    0     0.000    5.007774   30.292310   16.327234
 146 Q     0.6645    0     0.000    2.456644   30.500180   15.174501
 147 Q    -1.3290    0     0.000    3.684966   31.142687   15.930391
 148 Q     0.6645    0     0.000   30.046646   29.517522   17.952398
 149 Q     0.6645    0     0.000   27.438823   28.364789   17.158713
 150 Q    -1.3290    0     0.000   28.969502   28.780529   16.931946
 151 Q     0.6645    0     0.000   20.276761   22.941275   11.924172
 152 Q     0.6645    0     0.000   22.676714   24.339673   11.489535
 153 Q    -1.3290    0     0.000   21.561775   23.716063   12.434398
 154 Q     0.6645    0     0.000   28.591556   37.473269   10.979309
 155 Q     0.6645    0     0.000   26.607344   37.718934    8.825021
 156 Q    -1.3290    0     0.000   27.930152   37.208708    9.524220
 157 Q     0.6645    0     0.000   27.892358   23.375912    3.798350
 158 Q     0.6645    0     0.000   26.002632   21.467289    4.403062
 159 Q    -1.3290    0     0.000   26.437269   22.903481    4.025117
 160 Q     0.6645    0     0.000   26.947495    8.825021   17.083124
 161 Q     0.6645    0     0.000   24.528645    8.484870   15.382371
 162 Q    -1.3290    0     0.000   25.397919    8.409281   16.742974
 163 Q     0.6645    0     0.000   31.558426   10.280110    9.826576
 164 Q     0.6645    0     0.000   29.649803    8.125822    9.618706
 165 Q    -1.3290    0     0.000   30.405693    9.391939   10.299007
 166 Q     0.6645    0     0.000    5.820356   21.278316    5.140055
 167 Q     0.6645    0     0.000    5.858151   23.602679    6.746322
 168 Q    -1.3290    0     0.000    6.122713   22.053104    6.462863
 169 Q     0.6645    0     0.000   14.210741   20.446837   33.580433
 170 Q     0.6645    0     0.000   16.516206   21.127138   32.030858
 171 Q    -1.3290    0     0.000   15.533549   20.182275   32.748954
 172 Q     0.6645    0     0.000   33.221385    9.089583   30.878125
 173 Q     0.6645    0     0.000   30.972611    8.560459   29.196269
 174 Q    -1.3290    0     0.000   31.747399    9.316350   30.330104
 175 Q     0.6645    0     0.000   17.461069   31.558426    5.839254
 176 Q     0.6645    0     0.000   16.535104   33.656022    4.138500
 177 Q    -1.3290    0     0.000   17.498864   33.013516    5.215644
 178 Q     0.6645    0     0.000   26.097118   16.837460    5.366822
 179 Q     0.6645    0     0.000   27.986844   18.405933    6.784117
 180 Q    -1.3290    0     0.000   27.401029   17.706734    5.499103
 181 Q     0.6645    0     0.000   -0.094486   11.791891   16.440617
 182 Q     0.6645    0     0.000    0.245664   10.336802   18.897261
 183 Q    -1.3290    0     0.000    0.510226   11.508432   17.857912
 184 Q     0.6645    0     0.000   17.687837   12.321014   32.030858
 185 Q     0.6645    0     0.000   16.440617    9.977754   30.689152
 186 Q    -1.3290    0     0.000   17.083124   10.847028   31.879680
 187 Q     0.6645    0     0.000   28.704940   17.177611   38.474824
 188 Q     0.6645    0     0.000   29.706495   15.439063   40.591317
 189 Q    -1.3290    0     0.000   28.742734   15.873700   39.400790
 190 Q     0.6645    0     0.000   33.145796   35.375673   18.594905
 191 Q     0.6645    0     0.000   33.637125   38.134673   18.349241
 192 Q    -1.3290    0     0.000   32.692262   36.811865   18.576008
 193 Q     0.6645    0     0.000    1.549575   24.415262   18.103576
 194 Q     0.6645    0     0.000   -0.604712   22.582227   16.837460
 195 Q    -1.3290    0     0.000    0.850377   23.413707   16.969741
 196 Q     0.6645    0     0.000   28.704940   26.304988   13.095802
 197 Q     0.6645    0     0.000   28.194714   24.339673   10.960412
 198 Q    -1.3290    0     0.000   29.082885   25.303433   11.867480
 199 Q     0.6645    0     0.000   29.252961    9.297453   32.900132
 200 Q     0.6645    0     0.000   27.344337   10.280110   34.770961
 201 Q    -1.3290    0     0.000   28.138022    9.146274   34.033968
 202 Q     0.6645    0     0.000   15.023323   27.778974    2.947973
 203 Q     0.6645    0     0.000   12.226528   26.928597    2.929076
 204 Q    -1.3290    0     0.000   13.530439   27.835666    3.439302
 205 Q     0.6645    0     0.000   26.097118    4.875493   18.122474
 206 Q     0.6645    0     0.000   28.704940    3.477096   18.670494
 207 Q    -1.3290    0     0.000   27.117570    3.703863   18.689391
 208 Q     0.6645    0     0.000   22.242077    5.177850    9.921062
 209 Q     0.6645    0     0.000   21.164933    3.023562    8.144720
 210 Q    -1.3290    0     0.000   22.317666    3.930630    8.919507
 211 Q     0.6645    0     0.000   27.363234   25.851454   33.901687
 212 Q     0.6645    0     0.000   25.322330   23.791652   32.786748
 213 Q    -1.3290    0     0.000   26.796317   24.490851   33.126899
[...]
 335   Q   :    0.190481428   -0.084683198    0.179131365
 336   Q   :    0.037606648    0.079199409   -0.269440077
 337   Q   :   -0.228252727    0.005373106    0.093963151
 338   Q   :    0.041957168   -0.278784536   -0.098353078
 339   Q   :   -0.207054777    0.163591513   -0.083543931
 340   Q   :    0.166349867    0.098976929    0.189138869
 341   Q   :   -0.236900204    0.022958554   -0.143859696
 342   Q   :    0.190919301    0.195342033   -0.008701597
 343   Q   :    0.050493774   -0.214804639    0.174669255
 344   Q   :   -0.032312471   -0.245794014    0.034544664
 345   Q   :    0.108592453    0.119753410   -0.199792385
 346   Q   :   -0.075227413    0.128664280    0.162955365
 347   Q   :    0.159352152    0.183367513    0.169023342
 348   Q   :    0.038167096   -0.291348351   -0.002333740
 349   Q   :   -0.200062822    0.109412366   -0.166309993
 350   Q   :   -0.145862443   -0.060943534    0.249604270
 351   Q   :    0.292810386   -0.011975530   -0.023830502
 352   Q   :   -0.155018242    0.085693179   -0.219032643
 353   Q   :   -0.119567455    0.083173109    0.219906800
 354   Q   :   -0.132162790   -0.103800029   -0.170976164
 355   Q   :    0.258074061    0.026911557   -0.047590229
 356   Q   :   -0.181614195    0.153513050    0.091187627
 357   Q   :   -0.020116922   -0.185992956   -0.247266068
 358   Q   :    0.208541035    0.024872620    0.139627614
 359   Q   :    0.218565680   -0.003008892    0.192218892
 360   Q   :    0.020936408   -0.002025557   -0.276584878
 361   Q   :   -0.243414652    0.001058598    0.079760868
 362   Q   :    0.194194550   -0.082830364    0.198705473
 363   Q   :   -0.261973141    0.116258727    0.071794705
 364   Q   :    0.065627467   -0.026733744   -0.262876066
 365   Q   :    0.012290543   -0.109520877   -0.247336512
 366   Q   :   -0.152197911    0.259492490    0.056896631
 367   Q   :    0.125126872   -0.148088151    0.194508568
 368   Q   :   -0.061257296   -0.125771585   -0.230061393
 369   Q   :   -0.188784490    0.096501987    0.180986694
 370   Q   :    0.243209508    0.030470272    0.050224336
 371   Q   :   -0.053969750    0.264312107   -0.080077990
 372   Q   :   -0.092304320   -0.094344259    0.258593781
 373   Q   :    0.133845469   -0.179602919   -0.170073206
 374   Q   :   -0.275863965    0.031495581   -0.056462541
 375   Q   :    0.104543426   -0.264401533    0.109283637
 376   Q   :    0.174208817    0.231855356   -0.049845668
 377   Q   :   -0.156961536    0.084727424    0.163814920
 378   Q   :    0.243087831    0.044991049   -0.002277365
 379   Q   :   -0.087485222   -0.126181566   -0.157943907
 380   Q   :   -0.116902585    0.018141132   -0.274547318
 381   Q   :   -0.043118528   -0.185887986    0.176081099
 382   Q   :    0.173416749    0.157963559    0.099529165
 383   Q   :   -0.115597654    0.295992953    0.023110223
 384   Q   :    0.011223002   -0.147875361   -0.234900408
 385   Q   :    0.108339856   -0.141795728    0.205931577
 386   Q   :   -0.249225564   -0.040261869    0.034064696
 387   Q   :    0.124223130   -0.025132975   -0.257317243
 388   Q   :    0.130356636    0.054772988    0.217193187
 389   Q   :   -0.029612102   -0.216606738   -0.145596389
 390   Q   :   -0.109598374    0.054740818    0.271855228
 391   Q   :    0.131847492    0.182229662   -0.113021831
 392   Q   :   -0.137355004    0.173000777    0.208804028
 393   Q   :    0.048414347    0.047291935   -0.240083332
 394   Q   :    0.075534869   -0.217735930    0.035169392
 395   Q   :    0.087050406    0.030875847    0.209721577
 396   Q   :   -0.248201463   -0.008185807   -0.074747525
 397   Q   :    0.162656170   -0.023057478   -0.142995576
 398   Q   :    0.003338139    0.272319003    0.049597073
 399   Q   :   -0.126224488   -0.218303969    0.143090990
 400   Q   :    0.116459467   -0.054268191   -0.187247351
 401   Q   :   -0.181897322   -0.019810757   -0.205909520
 402   Q   :    0.236074805   -0.096531536   -0.004612998
 403   Q   :   -0.052198706    0.113728236    0.222499731
 404   Q   :    0.117838216    0.209759925   -0.002758245
 405   Q   :   -0.156900535   -0.083256868    0.147971717
 406   Q   :    0.041491204   -0.118669565   -0.135562726
 407   Q   :    0.084618495   -0.208874443    0.184561336
 408   Q   :    0.075951570   -0.010170981   -0.293305106
 409   Q   :   -0.146557724    0.225032567    0.109895166
 410   Q   :    0.041469268    0.109360330    0.266160084
 411   Q   :    0.008367282    0.160273177   -0.210004423
 412   Q   :   -0.042593572   -0.272988777   -0.068714291
 413   Q   :    0.247417831    0.102881351   -0.015101236
 414   Q   :   -0.130075669   -0.202372230   -0.149677665
 415   Q   :   -0.124767635    0.097808935    0.152838238
 416   Q   :    0.266988008    0.033573118   -0.051118474
 417   Q   :   -0.146658065   -0.005464908    0.256983656
 418   Q   :   -0.127172641   -0.030630744   -0.205336793
 419   Q   :   -0.090687901    0.166305364   -0.156688876
 420   Q   :    0.144910406   -0.233308756   -0.057793218
 421   Q   :   -0.046028536    0.067906309    0.226313956
 422   Q   :    0.174885363    0.215724301   -0.109202698
 423   Q   :   -0.233282315   -0.061555221   -0.116471860
 424   Q   :    0.045704277   -0.152948872    0.223170229
 425   Q   :    0.146157356   -0.210749960    0.117266637
 426   Q   :   -0.052115558   -0.016323195   -0.286820594
 427   Q   :   -0.092274515    0.227009202    0.165300321
 428   Q   :    0.050370352    0.157983024    0.238862417
 429   Q   :    0.120570793   -0.005201724   -0.228266709
 430   Q   :   -0.169075065   -0.147880963   -0.008344656
 431   Q   :   -0.029303899    0.226991296    0.128877056
 432   Q   :    0.265456188   -0.096503866   -0.133692883
 433   Q   :   -0.237188018   -0.139734223   -0.014319193
 434   Q   :   -0.017906570    0.084789035    0.248924126
 435   Q   :   -0.192966658    0.079520178   -0.217871954
 436   Q   :    0.211018857   -0.163802622   -0.043160609
 437   Q   :    0.262284677   -0.027571401   -0.050468114
 438   Q   :   -0.152838438    0.223665938   -0.149606789
 439   Q   :   -0.111415377   -0.190856186    0.199720500
 440   Q   :    0.257705769    0.002803291    0.165832401
 441   Q   :   -0.170034773   -0.231183796   -0.021250937
 442   Q   :   -0.093369557    0.226420151   -0.147670916
 443   Q   :   -0.035451801   -0.010698424   -0.264429284
 444   Q   :    0.164749635   -0.160651049    0.161956285
 445   Q   :   -0.138757952    0.175284548    0.113128902
 446   Q   :    0.098929559   -0.223077189    0.138106669
 447   Q   :   -0.229073114    0.003092148   -0.183086390
 448   Q   :    0.133616413    0.221807981    0.040700847
 449   Q   :    0.070896518    0.077972067   -0.259711821
 450   Q   :   -0.210177825    0.045262887    0.138165028
 451   Q   :    0.136764664   -0.131473987    0.123215042
 452   Q   :    0.140940264   -0.181099199   -0.133817594
 453   Q   :    0.046596332    0.264947979   -0.007386363
 454   Q   :   -0.184516999   -0.087704216    0.127709250
 455   Q   :    0.172013684    0.124174952    0.166291576
 456   Q   :    0.075564122   -0.208156454   -0.205185359
 457   Q   :   -0.250961123    0.071017773    0.030606049
 458   Q   :    0.010646955    0.148921165   -0.201281986
 459   Q   :    0.178438330   -0.116280879    0.129185223
 460   Q   :   -0.184180717   -0.023513867    0.083781149
 461   Q   :    0.167559467    0.260533306    0.080560680
 462   Q   :   -0.209424451   -0.048757308    0.050056830
 463   Q   :    0.048804844   -0.199579146   -0.138693364
 464   Q   :   -0.257610832   -0.000214075    0.115538641
 465   Q   :    0.226555144    0.007818668    0.105281132
 466   Q   :    0.022157591   -0.015241323   -0.214454818
 467   Q   :   -0.200026518    0.183490268   -0.020734067
 468   Q   :    0.022878092   -0.219853822    0.179237126
 469   Q   :    0.177017976    0.026363128   -0.154114920
 470   Q   :   -0.270251065    0.064473919   -0.035548353
 471   Q   :    0.137457568   -0.112056959   -0.214641655
 472   Q   :    0.134241097    0.052877428    0.252563393
 473   Q   :    0.047575653    0.098471765   -0.234013147
 474   Q   :    0.144786039   -0.123948191    0.161762840
 475   Q   :   -0.187994507    0.033244571    0.071912324
 476   Q   :    0.217930762    0.101800945    0.097442502
 477   Q   :   -0.190760877    0.147979583   -0.153617158
 478   Q   :   -0.034001676   -0.260892095    0.064187942
 479   Q   :   -0.197419608   -0.287630529   -0.009553635
 480   Q   :   -0.119525719    0.253354586   -0.069647387
 481   Q   :    0.310665901    0.033491218    0.085365411
 482   Q   :   -0.171189854    0.115364555    0.201527285
 483   Q   :   -0.074496201   -0.252521142   -0.160323410
 484   Q   :    0.255815166    0.135064401   -0.041429811
 485   Q   :   -0.234354950    0.005150124    0.090089703
 486   Q   :    0.232169816   -0.148907368    0.069940124
 487   Q   :    0.004324559    0.143743172   -0.160925319
 488   Q   :   -0.055153174   -0.137878524   -0.224443591
 489   Q   :    0.155160293    0.171402430    0.063693208
 490   Q   :   -0.104751236   -0.044212516    0.149453944
 491   Q   :    0.239154605    0.083819491   -0.078575671
 492   Q   :   -0.140697086    0.075547325    0.197372301
 493   Q   :   -0.102483727   -0.153761124   -0.106040739
 494   Q   :    0.160011348    0.132483088   -0.238658086
 495   Q   :   -0.184617121    0.180347329    0.159388543
 496   Q   :    0.023376514   -0.308600552    0.083955969
 497   Q   :    0.015118979    0.248751777    0.108802282
 498   Q   :    0.176339693   -0.122616153   -0.119536497
 499   Q   :   -0.183362263   -0.131667084    0.015873989
 500   Q   :   -0.120115782   -0.269526336   -0.018720034
 501   Q   :    0.161995317    0.085317591    0.233115298
 502   Q   :   -0.043976191    0.184311579   -0.216678322
 503   Q   :   -0.082747523    0.131301809   -0.246158060
 504   Q   :   -0.173851058   -0.119179748    0.190298234
 505   Q   :    0.254442761   -0.014860189    0.051874764
 506   Q   :    0.193917705   -0.048223348   -0.162549977
 507   Q   :    0.054315816    0.031070650    0.318496682
 508   Q   :   -0.248417246    0.027851542   -0.144722613
 509   Q   :    0.161453569   -0.121597638   -0.242785315
 510   Q   :    0.046474633    0.311520996    0.034784845
 511   Q   :   -0.198409683   -0.176387453    0.201943355
 512   Q   :   -0.011300461    0.276999250   -0.049087862
 513   Q   :   -0.263867850   -0.142900109    0.106681317
 514   Q   :    0.269366184   -0.134167317   -0.052120254
 515   Q   :    0.158852430   -0.272560337   -0.050858424
 516   Q   :   -0.250215413    0.059214385   -0.163153350
 517   Q   :    0.090224917    0.210445153    0.206491260
 518   Q   :    0.072021409    0.026873834   -0.246553351
 519   Q   :   -0.224981720   -0.059455812    0.083959097
 520   Q   :    0.154142019    0.021747908    0.159547011
 521   Q   :   -0.186104228    0.172154186    0.134553472
 522   Q   :   -0.008442896   -0.049387285   -0.273252567
 523   Q   :    0.187056229   -0.124507373    0.142926117
 524   Q   :    0.061456851   -0.154255596   -0.224351702
 525   Q   :    0.110372242    0.206539186    0.101442050
 526   Q   :   -0.170480917   -0.055989491    0.123318054
 527   Q   :   -0.189850175    0.168739870    0.128479845
 528   Q   :    0.001847653   -0.300212543   -0.004782370
 529   Q   :    0.187657046    0.135432702   -0.147779967
 530   Q   :    0.168456884    0.227171464    0.067497627
 531   Q   :   -0.000295076   -0.121075389   -0.202984258
 532   Q   :   -0.170162157   -0.095638277    0.132157358
 533   Q   :   -0.045825825   -0.298566226    0.010531373
 534   Q   :    0.216134035    0.131253480    0.170581770
 535   Q   :   -0.173831439    0.170873577   -0.171950231
 536   Q   :    0.137025389   -0.221585256   -0.030399731
 537   Q   :    0.128889263    0.269047634    0.017825694
 538   Q   :   -0.257246577   -0.029381993    0.011177794
 539   Q   :    0.141007502    0.027411388    0.196045674
 540   Q   :   -0.096754386   -0.185009911   -0.115636650
 541   Q   :   -0.048645270    0.151255235   -0.071514714
 542   Q   :    0.200995044    0.179254286    0.070122420
 543   Q   :    0.058345668   -0.269012544    0.005978738
 544   Q   :   -0.268775465    0.092260551   -0.074649384
 545   Q   :   -0.189714057    0.189656270   -0.068253967
 546   Q   :    0.293945817    0.018638626   -0.025831003
 547   Q   :   -0.100313364   -0.209855447    0.093496359
 548   Q   :    0.126024588    0.238615043    0.103498368
 549   Q   :   -0.267264960   -0.055061841    0.059616569
 550   Q   :    0.148306695   -0.174613771   -0.175533319
 551   Q   :    0.176497373    0.116734803   -0.222376674
 552   Q   :    0.035266709   -0.258850166    0.110672577
 553   Q   :   -0.212037722    0.139772468    0.096621665
 554   Q   :   -0.195255348    0.180556933    0.141781510
 555   Q   :    0.301824556   -0.017030653    0.074377476
 556   Q   :   -0.101748192   -0.154268367   -0.204444639
 557   Q   :   -0.037692723    0.117146942    0.276022732
 558   Q   :   -0.205126780   -0.140516050   -0.106807367
 559   Q   :    0.243408544    0.015614992   -0.162027435
 560   Q   :   -0.283166384   -0.053318125   -0.018890979
 561   Q   :    0.124660835    0.252273510   -0.096538774
 562   Q   :    0.153804991   -0.203234098    0.112111229
 563   Q   :   -0.171839184    0.164941232    0.163819668
 564   Q   :    0.109375236   -0.214467426    0.082048399
 565   Q   :    0.066404370    0.054720772   -0.238603512
 566   Q   :   -0.170361833    0.063323825    0.255048929
 567   Q   :   -0.136422797   -0.091903041   -0.230855769
 568   Q   :    0.302883818    0.033636139   -0.020170197
 569   Q   :    0.190650223    0.081541037   -0.196574869
 570   Q   :   -0.196801806    0.172895713    0.113319183
 571   Q   :    0.010130081   -0.276729821    0.081871128
 572   Q   :    0.187104048   -0.250045291    0.018242753
 573   Q   :    0.043657861    0.232874773   -0.117623188
 574   Q   :   -0.215917262    0.010065712    0.103952942
 575   Q   :    0.130557472   -0.186201205    0.168066586
 576   Q   :   -0.130172603   -0.099457356   -0.231039765
 577   Q   :    0.006085724    0.299660961    0.055004293
 578   Q   :   -0.155662935   -0.113827115    0.148422733
 579   Q   :    0.140437017    0.235407552    0.031286514
 580   Q   :    0.012491576   -0.104516304   -0.177993947
 581   Q   :   -0.071499435    0.221287509   -0.122398607
 582   Q   :    0.045414648   -0.075476699    0.252402375
 583   Q   :    0.020345158   -0.154935498   -0.118193861
 584   Q   :   -0.005741709    0.277222130   -0.057793308
 585   Q   :   -0.113858997   -0.126054881    0.204198031
 586   Q   :    0.131344232   -0.155703245   -0.145027405
 587   Q   :   -0.143181321   -0.031071394    0.257063982
 588   Q   :    0.103304736   -0.194834783   -0.144281429
 589   Q   :    0.029403202    0.206899526   -0.110007299
 590   Q   :   -0.014284131   -0.255420190   -0.099632519
 591   Q   :    0.197438814    0.086463443    0.169844162
 592   Q   :   -0.180042054    0.167673739   -0.077011068
 593   Q   :    0.166033607    0.243108973   -0.051928170
 594   Q   :   -0.225114065   -0.074977287   -0.142042889
 595   Q   :    0.072004353   -0.168891901    0.195078066
 596   Q   :   -0.167105654   -0.100767958    0.204397961
 597   Q   :   -0.073177986    0.039956539   -0.262575696
 598   Q   :    0.240686594    0.050090621    0.057178110
 599   Q   :    0.048266168    0.227607097   -0.184186604
 600   Q   :   -0.080180937    0.014604737    0.269833251
 601   Q   :    0.030471426   -0.236806701   -0.074916705
 602   Q   :    0.246713113   -0.103725621   -0.107090870
 603   Q   :   -0.164502651    0.184810890   -0.127083076
 604   Q   :   -0.088058885   -0.072630612    0.237290583
 605   Q   :   -0.043314209    0.181811810    0.177976469
 606   Q   :    0.197913942   -0.163254189   -0.047217917
 607   Q   :   -0.147217596   -0.007757137   -0.134017317
 608   Q   :    0.287128214    0.036339323   -0.015067415
 609   Q   :   -0.186955649    0.138874715    0.153890656
 610   Q   :   -0.101018889   -0.169433916   -0.143525155
 611   Q   :   -0.246486734    0.000182171   -0.137949560
 612   Q   :    0.054200236   -0.191699104    0.201023727
 613   Q   :    0.180698225    0.195546072   -0.062041027
 614   Q   :    0.155776401    0.171269255   -0.132300144
 615   Q   :   -0.039658054   -0.034530049    0.270666933
 616   Q   :   -0.110781127   -0.138082470   -0.138747603
 617   Q   :   -0.245727329   -0.100223443   -0.042515031
 618   Q   :    0.083797221    0.222246840   -0.151218666
 619   Q   :    0.158061687   -0.122228730    0.196991795
 620   Q   :    0.226183944    0.075262932   -0.075955410
 621   Q   :   -0.171592106   -0.188053793   -0.127257144
 622   Q   :   -0.070791363    0.107805156    0.193767418
 623   Q   :    0.029293092    0.077633742   -0.238711959
 624   Q   :   -0.112655096   -0.238850956    0.111489582
 625   Q   :    0.079472099    0.153741307    0.130309420

Difference to translation invariance:
           :    0.0002342844    0.0004872168   -0.0000826097

Difference to rotation invariance:
           :   -0.0174799852    0.0056549859    0.0052729653

Norm of the cartesian gradient     ...    6.3400778638
RMS gradient                       ...    0.1464178265
MAX gradient                       ...    0.3195900275

-------
TIMINGS
-------

Total SCF gradient time            ...      145.071 sec

One electron gradient       ....      22.516 sec  ( 15.5%)
RI-J Coulomb gradient       ....       7.820 sec  (  5.4%)
COSX gradient               ....      85.836 sec  ( 59.2%)
XC gradient                 ....      12.514 sec  (  8.6%)

Maximum memory used throughout the entire SCFGRAD-calculation: 606.9 MB

                            ***************************************
                            *     ORCA property calculations      *
                            ***************************************

                                    ---------------------
                                    Active property flags
                                    ---------------------
   (+) Dipole Moment


------------------------------------------------------------------------------
                       ORCA ELECTRIC PROPERTIES CALCULATION
------------------------------------------------------------------------------

Dipole Moment Calculation                       ... on
Quadrupole Moment Calculation                   ... off
Polarizability Calculation                      ... off
GBWName                                         ... final012.orca.gbw
Electron density                                ... final012.orca.scfp
The origin for moment calculation is the CENTER OF MASS  = (21.509577, 21.844673 21.348811)

-------------
DIPOLE MOMENT
-------------
                                X             Y             Z
Electronic contribution:     -1.31695       0.26598       0.28711
Nuclear contribution   :     -1.98396      -8.25349     -11.57152
                        -----------------------------------------
Total Dipole Moment    :     -3.30091      -7.98751     -11.28441
                        -----------------------------------------
Magnitude (a.u.)       :     14.21387
Magnitude (Debye)      :     36.12880



--------------------
Rotational spectrum 
--------------------
 
Rotational constants in cm-1:     0.002572     0.001753     0.001582 
Rotational constants in MHz :    77.099127    52.565219    47.434239 

 Dipole components along the rotational axes: 
x,y,z [a.u.] :   -12.322432    -5.711769    -4.191371 
x,y,z [Debye]:   -31.321134   -14.518163   -10.653618 

 

Timings for individual modules:

Sum of individual times         ...      621.962 sec (=  10.366 min)
GTO integral calculation        ...       11.154 sec (=   0.186 min)   1.8 %
SCF iterations                  ...      461.398 sec (=   7.690 min)  74.2 %
SCF Gradient evaluation         ...      149.410 sec (=   2.490 min)  24.0 %
                             ****ORCA TERMINATED NORMALLY****
TOTAL RUN TIME: 0 days 0 hours 10 minutes 28 seconds 960 msec
