
                                 *****************
                                 * O   R   C   A *
                                 *****************

                                            #,                                       
                                            ###                                      
                                            ####                                     
                                            #####                                    
                                            ######                                   
                                           ########,                                 
                                     ,,################,,,,,                         
                               ,,#################################,,                 
                          ,,##########################################,,             
                       ,#########################################, ''#####,          
                    ,#############################################,,   '####,        
                  ,##################################################,,,,####,       
                ,###########''''           ''''###############################       
              ,#####''   ,,,,##########,,,,          '''####'''          '####       
            ,##' ,,,,###########################,,,                        '##       
           ' ,,###''''                  '''############,,,                           
         ,,##''                                '''############,,,,        ,,,,,,###''
      ,#''                                            '''#######################'''  
     '                                                          ''''####''''         
             ,#######,   #######,   ,#######,      ##                                
            ,#'     '#,  ##    ##  ,#'     '#,    #''#        ######   ,####,        
            ##       ##  ##   ,#'  ##            #'  '#       #        #'  '#        
            ##       ##  #######   ##           ,######,      #####,   #    #        
            '#,     ,#'  ##    ##  '#,     ,#' ,#      #,         ##   #,  ,#        
             '#######'   ##     ##  '#######'  #'      '#     #####' # '####'        



                  #######################################################
                  #                        -***-                        #
                  #          Department of theory and spectroscopy      #
                  #    Directorship and core code : Frank Neese         #
                  #        Max Planck Institute fuer Kohlenforschung    #
                  #                Kaiser Wilhelm Platz 1               #
                  #                 D-45470 Muelheim/Ruhr               #
                  #                      Germany                        #
                  #                                                     #
                  #                  All rights reserved                #
                  #                        -***-                        #
                  #######################################################


                         Program Version 5.0.3 -  RELEASE  -


 With contributions from (in alphabetic order):
   Daniel Aravena         : Magnetic Suceptibility
   Michael Atanasov       : Ab Initio Ligand Field Theory (pilot matlab implementation)
   Alexander A. Auer      : GIAO ZORA, VPT2 properties, NMR spectrum
   Ute Becker             : Parallelization
   Giovanni Bistoni       : ED, misc. LED, open-shell LED, HFLD
   Martin Brehm           : Molecular dynamics
   Dmytro Bykov           : SCF Hessian
   Vijay G. Chilkuri      : MRCI spin determinant printing, contributions to CSF-ICE
   Dipayan Datta          : RHF DLPNO-CCSD density
   Achintya Kumar Dutta   : EOM-CC, STEOM-CC
   Dmitry Ganyushin       : Spin-Orbit,Spin-Spin,Magnetic field MRCI
   Miquel Garcia          : C-PCM and meta-GGA Hessian, CC/C-PCM, Gaussian charge scheme
   Yang Guo               : DLPNO-NEVPT2, F12-NEVPT2, CIM, IAO-localization
   Andreas Hansen         : Spin unrestricted coupled pair/coupled cluster methods
   Benjamin Helmich-Paris : MC-RPA, TRAH-SCF, COSX integrals
   Lee Huntington         : MR-EOM, pCC
   Robert Izsak           : Overlap fitted RIJCOSX, COSX-SCS-MP3, EOM
   Marcus Kettner         : VPT2
   Christian Kollmar      : KDIIS, OOCD, Brueckner-CCSD(T), CCSD density, CASPT2, CASPT2-K
   Simone Kossmann        : Meta GGA functionals, TD-DFT gradient, OOMP2, MP2 Hessian
   Martin Krupicka        : Initial AUTO-CI
   Lucas Lang             : DCDCAS
   Marvin Lechner         : AUTO-CI (C++ implementation), FIC-MRCC
   Dagmar Lenk            : GEPOL surface, SMD
   Dimitrios Liakos       : Extrapolation schemes; Compound Job, initial MDCI parallelization
   Dimitrios Manganas     : Further ROCIS development; embedding schemes
   Dimitrios Pantazis     : SARC Basis sets
   Anastasios Papadopoulos: AUTO-CI, single reference methods and gradients
   Taras Petrenko         : DFT Hessian,TD-DFT gradient, ASA, ECA, R-Raman, ABS, FL, XAS/XES, NRVS
   Peter Pinski           : DLPNO-MP2, DLPNO-MP2 Gradient
   Christoph Reimann      : Effective Core Potentials
   Marius Retegan         : Local ZFS, SOC
   Christoph Riplinger    : Optimizer, TS searches, QM/MM, DLPNO-CCSD(T), (RO)-DLPNO pert. Triples
   Tobias Risthaus        : Range-separated hybrids, TD-DFT gradient, RPA, STAB
   Michael Roemelt        : Original ROCIS implementation
   Masaaki Saitow         : Open-shell DLPNO-CCSD energy and density
   Barbara Sandhoefer     : DKH picture change effects
   Avijit Sen             : IP-ROCIS
   Kantharuban Sivalingam : CASSCF convergence, NEVPT2, FIC-MRCI
   Bernardo de Souza      : ESD, SOC TD-DFT
   Georgi Stoychev        : AutoAux, RI-MP2 NMR, DLPNO-MP2 response
   Willem Van den Heuvel  : Paramagnetic NMR
   Boris Wezisla          : Elementary symmetry handling
   Frank Wennmohs         : Technical directorship


 We gratefully acknowledge several colleagues who have allowed us to
 interface, adapt or use parts of their codes:
   Stefan Grimme, W. Hujo, H. Kruse, P. Pracht,  : VdW corrections, initial TS optimization,
                  C. Bannwarth, S. Ehlert          DFT functionals, gCP, sTDA/sTD-DF
   Ed Valeev, F. Pavosevic, A. Kumar             : LibInt (2-el integral package), F12 methods
   Garnet Chan, S. Sharma, J. Yang, R. Olivares  : DMRG
   Ulf Ekstrom                                   : XCFun DFT Library
   Mihaly Kallay                                 : mrcc  (arbitrary order and MRCC methods)
   Jiri Pittner, Ondrej Demel                    : Mk-CCSD
   Frank Weinhold                                : gennbo (NPA and NBO analysis)
   Christopher J. Cramer and Donald G. Truhlar   : smd solvation model
   Lars Goerigk                                  : TD-DFT with DH, B97 family of functionals
   V. Asgeirsson, H. Jonsson                     : NEB implementation
   FAccTs GmbH                                   : IRC, NEB, NEB-TS, DLPNO-Multilevel, CI-OPT
                                                   MM, QMMM, 2- and 3-layer-ONIOM, Crystal-QMMM,
                                                   LR-CPCM, SF, NACMEs, symmetry and pop. for TD-DFT,
                                                   nearIR, NL-DFT gradient (VV10), updates on ESD,
                                                   ML-optimized integration grids
   S Lehtola, MJT Oliveira, MAL Marques          : LibXC Library
   Liviu Ungur et al                             : ANISO software


 Your calculation uses the libint2 library for the computation of 2-el integrals
 For citations please refer to: http://libint.valeyev.net

 Your ORCA version has been built with support for libXC version: 5.1.0
 For citations please refer to: https://tddft.org/programs/libxc/

 This ORCA versions uses:
   CBLAS   interface :  Fast vector & matrix operations
   LAPACKE interface :  Fast linear algebra routines
   SCALAPACK package :  Parallel linear algebra routines
   Shared memory     :  Shared parallel matrices
   BLAS/LAPACK       :  OpenBLAS 0.3.15  USE64BITINT DYNAMIC_ARCH NO_AFFINITY SkylakeX SINGLE_THREADED
        Core in use  :  SkylakeX
   Copyright (c) 2011-2014, The OpenBLAS Project


================================================================================

----- Orbital basis set information -----
Your calculation utilizes the basis: def2-SVP
   F. Weigend and R. Ahlrichs, Phys. Chem. Chem. Phys. 7, 3297 (2005).

The basis set includes element-specific modifications.

Your calculation utilizes the basis: aug-cc-pVTZ 
    H, B-Ne : Obtained from the ccRepo (grant-hill.group.shef.ac.uk/ccrepo) Feb. 2017
              R. A. Kendall, T. H. Dunning, Jr., R. J. Harrison, J. Chem. Phys. 96, 6796 (1992)
         He : Obtained from the ccRepo (grant-hill.group.shef.ac.uk/ccrepo) Feb. 2017
              D. E. Woon, T. H. Dunning, Jr., J. Chem. Phys. 100, 2975 (1994)
  Li-Be, Na : Obtained from the ccRepo (grant-hill.group.shef.ac.uk/ccrepo) Feb. 2017
              B. P. Prascher, D. E. Woon, K. A. Peterson, T. H. Dunning, Jr., A. K. Wilson, Theor. Chem. Acc. 128, 69 (2011)
         Mg : Obtained from the Peterson Research Group Website (tyr0.chem.wsu.edu/~kipeters) Feb. 2017
              B. P. Prascher, D. E. Woon, K. A. Peterson, T. H. Dunning, Jr., A. K. Wilson, Theor. Chem. Acc. 128, 69 (2011)
      Al-Ar : Obtained from the ccRepo (grant-hill.group.shef.ac.uk/ccrepo) Feb. 2017
              D. E. Woon, T. H. Dunning, Jr., J. Chem. Phys. 98, 1358 (1993)
      Sc-Zn : Obtained from the ccRepo (grant-hill.group.shef.ac.uk/ccrepo) Feb. 2017
              N. B. Balabanov, K. A. Peterson, J. Chem. Phys. 123, 064107 (2005)
              N. B. Balabanov, K. A. Peterson, J. Chem. Phys. 125, 074110 (2006)
      Ga-Kr : Obtained from the ccRepo (grant-hill.group.shef.ac.uk/ccrepo) Feb. 2017
              A. K. Wilson, D. E. Woon, K. A. Peterson, T. H. Dunning, Jr., J. Chem. Phys. 110, 7667 (1999)
     Ag, Au : Obtained from the Peterson Research Group Website (tyr0.chem.wsu.edu/~kipeters) Feb. 2017
              K. A. Peterson, C. Puzzarini, Theor. Chem. Acc. 114, 283 (2005)

Your calculation utilizes the basis: cc-pVTZ 
       H, B-Ne : Obtained from the ccRepo (grant-hill.group.shef.ac.uk/ccrepo) Feb. 2017
                 T. H. Dunning, Jr., J. Chem. Phys. 90, 1007 (1989)
            He : Obtained from the ccRepo (grant-hill.group.shef.ac.uk/ccrepo) Feb. 2017
                 D. E. Woon, T. H. Dunning, Jr., J. Chem. Phys. 100, 2975 (1994)
  Li-Be, Na-Mg : Obtained from the ccRepo (grant-hill.group.shef.ac.uk/ccrepo) Feb. 2017
                 B. P. Prascher, D. E. Woon, K. A. Peterson, T. H. Dunning, Jr., A. K. Wilson, Theor. Chem. Acc. 128, 69 (2011)
         Al-Ar : Obtained from the ccRepo (grant-hill.group.shef.ac.uk/ccrepo) Feb. 2017
                 D. E. Woon, T. H. Dunning, Jr., J. Chem. Phys. 98, 1358 (1993)
            Ca : Obtained from the Peterson Research Group Website (tyr0.chem.wsu.edu/~kipeters) Feb. 2017
                 J. Koput, K. A. Peterson, J. Phys. Chem. 106, 9595 (2002)
         Sc-Zn : Obtained from the ccRepo (grant-hill.group.shef.ac.uk/ccrepo) Feb. 2017
                 N. B. Balabanov, K. A. Peterson, J. Chem. Phys. 123, 064107 (2005)
                 N. B. Balabanov, K. A. Peterson, J. Chem. Phys. 125, 074110 (2006)
         Ga-Kr : Obtained from the ccRepo (grant-hill.group.shef.ac.uk/ccrepo) Feb. 2017
                 A. K. Wilson, D. E. Woon, K. A. Peterson, T. H. Dunning, Jr., J. Chem. Phys. 110, 7667 (1999)
             Y : Obtained from the ccRepo (grant-hill.group.shef.ac.uk/ccrepo) Feb. 2017
                 K. A. Peterson, D. Figgen, M. Dolg, H. Stoll, J. Chem. Phys. 126, 124101 (2007)
        Ag, Au : Obtained from the Peterson Research Group Website (tyr0.chem.wsu.edu/~kipeters) Feb. 2017
                 K. A. Peterson, C. Puzzarini, Theor. Chem. Acc. 114, 283 (2005)

----- AuxJ basis set information -----
Your calculation utilizes the auxiliary basis: def2/J
   F. Weigend, Phys. Chem. Chem. Phys. 8, 1057 (2006).

================================================================================
                                        WARNINGS
                       Please study these warnings very carefully!
================================================================================

WARNING: The globally-selected AuxJ basis set is optimized for use with ECPs
         Make sure a suitable alternative is explicitly given all heavy elements (Z>36)

INFO   : the flag for use of the SHARK integral package has been found!

================================================================================
                                       INPUT FILE
================================================================================
NAME = final026.orca.inp
|  1> ! NoMOPrint PrintBasis #MINIPRINT SMALLPRINT LARGEPRINT
|  2> ! ALLPOP XYZFILE
|  3> #! BP86 3-21G   TightSCF
|  4> ! ENGRAD
|  5> ! B3LYP NormalPNO PModel #DecontractAux
|  6> #! VerySlowConv 
|  7>  %maxcore 5000
|  8>  %scf  maxiter   500  end 
|  9> 
| 10> %pal
| 11>     nprocs 32
| 12> end
| 13> 
| 14> %basis
| 15>     NewGTO O    # New basis for oxygen
| 16>         "aug-cc-pVTZ"
| 17>     end
| 18>     NewGTO C    # New basis for carbon
| 19>         "aug-cc-pVTZ"
| 20>     end
| 21>     NewGTO H    # New basis for hydrogen
| 22>         "cc-pVTZ"
| 23>     end
| 24> end
| 25> 
| 26> * xyz 0   1
| 27>   C  10.83  12.7  12.23  #1
| 28>   H  11.54  13.56  12.29  #2
| 29>   H  10.81  12.02  13.07  #3
| 30>   C  11.26  11.89  11.03  #4
| 31>   H  11.13  12.38  10.09  #5
| 32>   H  12.35  11.66  11.1  #6
| 33>   C  10.48  10.61  10.91  #7
| 34>   H  9.45  10.81  10.67  #8
| 35>   H  10.53  10.15  11.86  #9
| 36>   C  11.03  9.78  9.72  #10
| 37>   H  12.08  9.86  9.72  #11
| 38>   H  10.58  10.07  8.73  #12
| 39>   O  10.76  8.38  9.87  #13
| 40>   H  10.88  7.95  8.98  #14
| 41>   O  9.59  13.16  11.99  #15
| 42>   H  9.65  13.85  11.28  #16
| 43>   O  13.19  14.08  8.91  #17
| 44>   H  13.42  14.32  9.82  #18
| 45>   H  12.24  14.21  8.79  #19
| 46>   O  9.58  8.92  14.18  #20
| 47>   H  8.81  9.3  13.74  #21
| 48>   H  9.24  8.74  15.07  #22
| 49>   O  9.28  13.84  15.61  #23
| 50>   H  9.17  13.86  16.56  #24
| 51>   H  10.22  13.59  15.48  #25
| 52>   O  11.03  16.65  10.13  #26
| 53>   H  11.59  16.33  10.91  #27
| 54>   H  10.27  16.12  9.93  #28
| 55>   O  14.34  9.58  9.92  #29
| 56>   H  14.47  10.04  9.05  #30
| 57>   H  15.26  9.3  10.02  #31
| 58>   O  13.49  8.36  6.94  #32
| 59>   H  13.63  7.97  6.06  #33
| 60>   H  12.55  8.32  7.11  #34
| 61>   O  14.95  12.03  11.4  #35
| 62>   H  15.12  11.98  12.36  #36
| 63>   H  14.66  11.16  11.26  #37
| 64>   O  10.73  14  7.36  #38
| 65>   H  10.95  13.22  6.87  #39
| 66>   H  11.14  14.78  7.04  #40
| 67>   O  16.1  9.72  7.17  #41
| 68>   H  15.35  9.17  7.38  #42
| 69>   H  16.71  9.48  7.9  #43
| 70>   O  10.98  7.51  6.21  #44
| 71>   H  11.43  7.31  5.37  #45
| 72>   H  10.32  6.82  6.3  #46
| 73>   O  7.3  11.93  15.85  #47
| 74>   H  8.14  12.1  15.42  #48
| 75>   H  7.57  11.77  16.72  #49
| 76>   O  9.84  16.94  15.61  #50
| 77>   H  9.42  16.14  15.81  #51
| 78>   H  9.31  17.33  14.89  #52
| 79>   O  13.28  18.64  8.92  #53
| 80>   H  13.78  18  8.43  #54
| 81>   H  12.76  18.09  9.42  #55
| 82>   O  13.08  15.04  14.08  #56
| 83>   H  13.64  15.02  13.28  #57
| 84>   H  13.71  15.26  14.75  #58
| 85>   O  13.31  7.07  4.48  #59
| 86>   H  13.9  6.34  4.45  #60
| 87>   H  13.53  7.63  3.7  #61
| 88>   O  12.03  12.78  15.43  #62
| 89>   H  12.26  11.89  15.05  #63
| 90>   H  12.48  13.53  14.92  #64
| 91>   O  9.36  7.49  16.55  #65
| 92>   H  9.58  7.79  17.44  #66
| 93>   H  8.52  6.93  16.66  #67
| 94>   O  14.68  16.67  7.66  #68
| 95>   H  15.29  16.43  6.94  #69
| 96>   H  14.56  15.82  8.13  #70
| 97>   O  9.64  19.06  11.2  #71
| 98>   H  9.29  19.65  10.44  #72
| 99>   H  10.31  18.42  10.83  #73
|100>   O  6.93  15.27  14.46  #74
|101>   H  7.59  14.61  14.71  #75
|102>   H  7.45  15.93  13.99  #76
|103>   O  6.77  12.26  12.75  #77
|104>   H  6.94  11.94  13.64  #78
|105>   H  7.63  12.55  12.38  #79
|106>   O  8.93  11.62  7.61  #80
|107>   H  9.05  12.57  7.4  #81
|108>   H  9.13  11.14  6.86  #82
|109>   O  8.36  14.54  18.14  #83
|110>   H  7.49  14.82  17.7  #84
|111>   H  8.76  15.32  18.51  #85
|112>   O  14.62  6.06  8.44  #86
|113>   H  14.38  6.7  7.83  #87
|114>   H  14.19  6.28  9.25  #88
|115>   O  7.51  9.72  12.63  #89
|116>   H  7.1  10.58  12.39  #90
|117>   H  7.5  9.06  11.94  #91
|118>   O  14.06  14.67  11.42  #92
|119>   H  14.39  13.84  11.72  #93
|120>   H  14.84  15.27  11.41  #94
|121>   O  11.51  16.86  12.76  #95
|122>   H  10.83  17.24  13.35  #96
|123>   H  11.93  16.2  13.25  #97
|124>   O  13  6.15  10.98  #98
|125>   H  12.27  6.11  10.33  #99
|126>   H  13.03  7.12  10.99  #100
|127>   O  12.43  10.13  14.59  #101
|128>   H  11.53  9.87  14.39  #102
|129>   H  12.91  9.94  13.79  #103
|130>   O  10.75  5.28  9.13  #104
|131>   H  10.07  5.3  8.46  #105
|132>   H  10.2  4.78  9.8  #106
|133>   O  7.6  7.87  10.37  #107
|134>   H  8.52  8.01  10.3  #108
|135>   H  7.41  6.88  10.17  #109
|136>   O  8.66  14.9  9.45  #110
|137>   H  7.78  15.03  9.09  #111
|138>   H  9.13  14.54  8.69  #112
|139>   O  13.76  11.18  7.55  #113
|140>   H  13.7  12.13  7.77  #114
|141>   H  14.59  11.14  7.06  #115
|142>   O  10.38  6.98  12.7  #116
|143>   H  9.9  7.74  13.07  #117
|144>   H  10.97  7.38  12.03  #118
|145>   Q  0.6645  11.82$  2.1$  14.79$
|146>   Q  0.6645  11.42$  3.6$  14.56$
|147>   Q  -1.3290  11.81$  2.94$  14.96$
|148>   Q  0.6645  13.33$  20.33$  7.59$
|149>   Q  0.6645  13.79$  21.69$  8.15$
|150>   Q  -1.3290  13.65$  21.12$  7.52$
|151>   Q  0.6645  10.26$  8.85$  2.73$
|152>   Q  0.6645  10.5$  7.46$  2.07$
|153>   Q  -1.3290  10.15$  8.01$  2.66$
|154>   Q  0.6645  9.86$  0.94$  6.94$
|155>   Q  0.6645  10$  -0.59$  6.78$
|156>   Q  -1.3290  9.65$  0.17$  6.62$
|157>   Q  0.6645  4.25$  6.43$  8.4$
|158>   Q  0.6645  3.54$  5.17$  7.8$
|159>   Q  -1.3290  4.07$  5.84$  7.8$
|160>   Q  0.6645  13.05$  9.24$  16.5$
|161>   Q  0.6645  13.51$  9.34$  18.08$
|162>   Q  -1.3290  13.01$  9.12$  17.38$
|163>   Q  0.6645  2.47$  10.15$  14.63$
|164>   Q  0.6645  2.94$  9.28$  13.42$
|165>   Q  -1.3290  2.81$  9.45$  14.24$
|166>   Q  0.6645  8.59$  17.63$  12.41$
|167>   Q  0.6645  8.1$  18.41$  13.69$
|168>   Q  -1.3290  8.37$  17.71$  13.26$
|169>   Q  0.6645  17.56$  12.96$  7.02$
|170>   Q  0.6645  16.31$  12.96$  6.17$
|171>   Q  -1.3290  16.89$  13.31$  6.67$
|172>   Q  0.6645  20.62$  12.82$  11.7$
|173>   Q  0.6645  22.04$  12.18$  11.42$
|174>   Q  -1.3290  21.17$  12.25$  11.38$
|175>   Q  0.6645  5.66$  12.36$  15.46$
|176>   Q  0.6645  4.29$  11.61$  15.9$
|177>   Q  -1.3290  4.78$  12.3$  15.65$
|178>   Q  0.6645  16.07$  13.47$  14.12$
|179>   Q  0.6645  15.68$  12.13$  14.6$
|180>   Q  -1.3290  15.63$  12.76$  14.11$
|181>   Q  0.6645  18$  8.07$  9.33$
|182>   Q  0.6645  18.34$  9.54$  9.29$
|183>   Q  -1.3290  17.9$  8.86$  9.12$
|184>   Q  0.6645  7.69$  1.61$  10.9$
|185>   Q  0.6645  6.23$  1.86$  11.38$
|186>   Q  -1.3290  7.05$  1.62$  11.46$
|187>   Q  0.6645  15.14$  11.37$  4.76$
|188>   Q  0.6645  14.4$  12.7$  4.44$
|189>   Q  -1.3290  14.99$  12.18$  4.8$
|190>   Q  0.6645  17.04$  3.22$  6.88$
|191>   Q  0.6645  17.62$  2.93$  5.41$
|192>   Q  -1.3290  17.24$  3.39$  6.05$
|193>   Q  0.6645  7.85$  21.36$  6.62$
|194>   Q  0.6645  6.73$  20.42$  6.72$
|195>   Q  -1.3290  7.05$  21.13$  6.53$
|196>   Q  0.6645  13.09$  4.35$  7.21$
|197>   Q  0.6645  11.88$  4.27$  8.03$
|198>   Q  -1.3290  12.35$  4.06$  7.41$
|199>   Q  0.6645  2.2$  12.81$  12.41$
|200>   Q  0.6645  2.83$  12.75$  11.08$
|201>   Q  -1.3290  2.19$  12.83$  11.59$
|202>   Q  0.6645  18.66$  4.48$  6.31$
|203>   Q  0.6645  18.93$  5.28$  7.56$
|204>   Q  -1.3290  19.13$  5.01$  6.79$
|205>   Q  0.6645  19.79$  6.81$  11.9$
|206>   Q  0.6645  19.67$  6.02$  13.31$
|207>   Q  -1.3290  19.83$  6.69$  12.75$
|208>   Q  0.6645  8.9$  17.25$  19.82$
|209>   Q  0.6645  7.65$  16.95$  19.05$
|210>   Q  -1.3290  8.22$  16.85$  19.68$
|211>   Q  0.6645  17.76$  10.62$  1.16$
|212>   Q  0.6645  16.81$  10.21$  2.35$
|213>   Q  -1.3290  17.42$  10.69$  1.93$
|214>   Q  0.6645  12.76$  20.33$  18.27$
|215>   Q  0.6645  11.44$  21.14$  18.06$
|216>   Q  -1.3290  12.1$  20.66$  17.84$
|217>   Q  0.6645  7.02$  19.34$  15.63$
|218>   Q  0.6645  5.53$  18.83$  15.28$
|219>   Q  -1.3290  6.33$  19.15$  15.14$
|220>   Q  0.6645  6.06$  6.33$  18.87$
|221>   Q  0.6645  6.56$  7.66$  18.56$
|222>   Q  -1.3290  6.46$  7$  19.05$
|223>   Q  0.6645  2.61$  14.94$  16.82$
|224>   Q  0.6645  1.75$  16.22$  16.99$
|225>   Q  -1.3290  1.98$  15.48$  16.64$
|226>   Q  0.6645  10.97$  12.13$  19.97$
|227>   Q  0.6645  12.22$  12.92$  19.4$
|228>   Q  -1.3290  11.79$  12.33$  19.86$
|229>   Q  0.6645  18.49$  18.63$  12.22$
|230>   Q  0.6645  19.53$  19.66$  12.76$
|231>   Q  -1.3290  19.03$  18.96$  12.79$
|232>   Q  0.6645  12.82$  9.56$  2.08$
|233>   Q  0.6645  13.95$  8.83$  1.34$
|234>   Q  -1.3290  13.46$  8.98$  2$
|235>   Q  0.6645  9.45$  19.93$  15.8$
|236>   Q  0.6645  9.13$  18.66$  16.67$
|237>   Q  -1.3290  9.08$  19.48$  16.43$
|238>   Q  0.6645  15.18$  15.8$  4.15$
|239>   Q  0.6645  13.86$  15.01$  3.99$
|240>   Q  -1.3290  14.51$  15.49$  3.73$
|241>   Q  0.6645  8.45$  4.45$  2.46$
|242>   Q  0.6645  7.61$  5.63$  1.96$
|243>   Q  -1.3290  7.93$  4.86$  1.91$
|244>   Q  0.6645  4.91$  14.07$  12.16$
|245>   Q  0.6645  5.35$  15.03$  13.3$
|246>   Q  -1.3290  4.89$  14.78$  12.6$
|247>   Q  0.6645  19.71$  11.47$  10.27$
|248>   Q  0.6645  18.35$  11.77$  9.73$
|249>   Q  -1.3290  18.92$  11.28$  10.09$
|250>   Q  0.6645  11.95$  5.47$  18.04$
|251>   Q  0.6645  12.04$  6.62$  17.08$
|252>   Q  -1.3290  12.35$  6.03$  17.62$
|253>   Q  0.6645  3.38$  14.98$  8.58$
|254>   Q  0.6645  1.88$  15.04$  8.94$
|255>   Q  -1.3290  2.56$  14.78$  8.51$
|256>   Q  0.6645  13.01$  16.64$  3.49$
|257>   Q  0.6645  12.05$  16.95$  4.63$
|258>   Q  -1.3290  12.29$  16.91$  3.84$
|259>   Q  0.6645  7.54$  5.4$  15.85$
|260>   Q  0.6645  6.41$  5.23$  16.9$
|261>   Q  -1.3290  7.12$  5.57$  16.59$
|262>   Q  0.6645  13.03$  16.73$  6.78$
|263>   Q  0.6645  11.78$  17.58$  6.91$
|264>   Q  -1.3290  12.21$  16.9$  6.68$
|265>   Q  0.6645  19.23$  12.64$  13.89$
|266>   Q  0.6645  19.76$  13.96$  13.21$
|267>   Q  -1.3290  19.63$  13.37$  13.85$
|268>   Q  0.6645  8.82$  13$  3.73$
|269>   Q  0.6645  9.3$  11.61$  3.19$
|270>   Q  -1.3290  8.79$  12.26$  3.22$
|271>   Q  0.6645  18.28$  11.22$  17.33$
|272>   Q  0.6645  16.78$  11.34$  16.72$
|273>   Q  -1.3290  17.63$  11.39$  16.75$
|274>   Q  0.6645  5.75$  18.36$  11.9$
|275>   Q  0.6645  5.7$  16.86$  11.8$
|276>   Q  -1.3290  5.89$  17.63$  11.52$
|277>   Q  0.6645  16.74$  13.09$  17.61$
|278>   Q  0.6645  16.12$  13.18$  18.91$
|279>   Q  -1.3290  16.4$  13.51$  18.24$
|280>   Q  0.6645  0.88$  9.33$  11.61$
|281>   Q  0.6645  -0.41$  9.89$  10.93$
|282>   Q  -1.3290  0.06$  9.35$  11.39$
|283>   Q  0.6645  6.09$  16.45$  16.35$
|284>   Q  0.6645  5.48$  15.78$  17.51$
|285>   Q  -1.3290  6.07$  16.23$  17.15$
|286>   Q  0.6645  20.91$  10.39$  6.31$
|287>   Q  0.6645  19.66$  9.58$  5.61$
|288>   Q  -1.3290  20.2$  9.87$  6.25$
|289>   Q  0.6645  3.46$  7.35$  6.59$
|290>   Q  0.6645  3.46$  8.82$  6.19$
|291>   Q  -1.3290  3.19$  8.03$  6.16$
|292>   Q  0.6645  11.37$  17.28$  16.32$
|293>   Q  0.6645  11.91$  18.6$  16.76$
|294>   Q  -1.3290  11.95$  17.76$  16.67$
|295>   Q  0.6645  11.4$  9.4$  18.31$
|296>   Q  0.6645  10.5$  9.17$  19.49$
|297>   Q  -1.3290  10.68$  9.25$  18.68$
|298>   Q  0.6645  5.24$  16.26$  4.79$
|299>   Q  0.6645  4$  15.23$  4.85$
|300>   Q  -1.3290  4.42$  15.96$  4.74$
|301>   Q  0.6645  10.52$  1.05$  2.95$
|302>   Q  0.6645  10.38$  0.68$  4.44$
|303>   Q  -1.3290  10.33$  1.19$  3.76$
|304>   Q  0.6645  8.31$  5.69$  6.17$
|305>   Q  0.6645  9.46$  5.1$  5.59$
|306>   Q  -1.3290  9.09$  5.45$  6.22$
|307>   Q  0.6645  6.39$  13.23$  8.16$
|308>   Q  0.6645  7.44$  12.14$  8.56$
|309>   Q  -1.3290  6.71$  12.55$  8.63$
|310>   Q  0.6645  4.59$  8.85$  14.62$
|311>   Q  0.6645  6.2$  8.76$  14.27$
|312>   Q  -1.3290  5.44$  8.7$  14.76$
|313>   Q  0.6645  6.1$  10.8$  4.26$
|314>   Q  0.6645  6.98$  11.58$  3.23$
|315>   Q  -1.3290  6.26$  11.23$  3.55$
|316>   Q  0.6645  17.48$  14.7$  9.7$
|317>   Q  0.6645  18.45$  15.22$  8.68$
|318>   Q  -1.3290  18.1$  15.18$  9.43$
|319>   Q  0.6645  5.8$  20.13$  13.36$
|320>   Q  0.6645  4.49$  20.6$  12.63$
|321>   Q  -1.3290  5.26$  20.19$  12.69$
|322>   Q  0.6645  17.41$  6.59$  2.74$
|323>   Q  0.6645  17.33$  6.81$  4.27$
|324>   Q  -1.3290  17.69$  6.59$  3.56$
|325>   Q  0.6645  5.18$  12.49$  10.04$
|326>   Q  0.6645  5.47$  12.09$  11.47$
|327>   Q  -1.3290  4.99$  12.23$  10.82$
|328>   Q  0.6645  10.62$  5.49$  13.5$
|329>   Q  0.6645  9.49$  4.54$  14.05$
|330>   Q  -1.3290  10.27$  4.74$  13.8$
|331>   Q  0.6645  12.19$  19.82$  14.16$
|332>   Q  0.6645  12.58$  18.49$  14.83$
|333>   Q  -1.3290  12.73$  19.25$  14.44$
|334>   Q  0.6645  5.86$  0.93$  7.32$
|335>   Q  0.6645  4.76$  2.14$  7.31$
|336>   Q  -1.3290  5.41$  1.63$  7.59$
|337>   Q  0.6645  10.98$  1.37$  13.12$
|338>   Q  0.6645  12.26$  0.62$  13.16$
|339>   Q  -1.3290  11.47$  0.73$  13.35$
|340>   Q  0.6645  17.65$  18.99$  14.35$
|341>   Q  0.6645  17.02$  18.39$  15.5$
|342>   Q  -1.3290  17.01$  18.91$  14.88$
|343>   Q  0.6645  14.3$  12.81$  1.02$
|344>   Q  0.6645  15.76$  12.9$  1.47$
|345>   Q  -1.3290  15.14$  12.79$  0.91$
|346>   Q  0.6645  17.39$  16.26$  15.69$
|347>   Q  0.6645  17.39$  16.4$  17.15$
|348>   Q  -1.3290  17.26$  16.68$  16.38$
|349>   Q  0.6645  15.79$  6.58$  18.06$
|350>   Q  0.6645  14.41$  6.54$  17.27$
|351>   Q  -1.3290  15.24$  6.67$  17.38$
|352>   Q  0.6645  8.13$  5.16$  10.8$
|353>   Q  0.6645  9.33$  5.82$  11.57$
|354>   Q  -1.3290  8.89$  5.16$  11.21$
|355>   Q  0.6645  3.66$  12.88$  4.92$
|356>   Q  0.6645  3.7$  12.84$  6.44$
|357>   Q  -1.3290  3.72$  13.21$  5.69$
|358>   Q  0.6645  18.34$  2.79$  8.76$
|359>   Q  0.6645  17.15$  1.7$  8.9$
|360>   Q  -1.3290  17.52$  2.45$  8.73$
|361>   Q  0.6645  16.04$  17.23$  11.89$
|362>   Q  0.6645  16.94$  16.42$  11.13$
|363>   Q  -1.3290  16.36$  16.48$  11.66$
|364>   Q  0.6645  14.23$  2.05$  3.55$
|365>   Q  0.6645  14.47$  0.58$  3.87$
|366>   Q  -1.3290  14.66$  1.31$  3.54$
|367>   Q  0.6645  12.45$  2.2$  6.67$
|368>   Q  0.6645  12.6$  0.63$  6.61$
|369>   Q  -1.3290  12.25$  1.41$  6.44$
|370>   Q  0.6645  2.74$  11.51$  2.7$
|371>   Q  0.6645  4.12$  11.3$  3.53$
|372>   Q  -1.3290  3.42$  11.72$  3.18$
|373>   Q  0.6645  6.42$  15.28$  6.57$
|374>   Q  0.6645  6.04$  13.82$  6.21$
|375>   Q  -1.3290  6.49$  14.43$  6.58$
|376>   Q  0.6645  20.69$  14.56$  8.45$
|377>   Q  0.6645  20.84$  13.62$  9.68$
|378>   Q  -1.3290  20.95$  13.84$  8.87$
|379>   Q  0.6645  17.33$  15.38$  13.34$
|380>   Q  0.6645  18.2$  14.61$  14.27$
|381>   Q  -1.3290  17.51$  15.02$  14.07$
|382>   Q  0.6645  12.36$  2.46$  4.56$
|383>   Q  0.6645  12.51$  3.1$  3.2$
|384>   Q  -1.3290  12.72$  2.95$  3.97$
|385>   Q  0.6645  11.28$  15.58$  1.18$
|386>   Q  0.6645  11.43$  16.04$  2.6$
|387>   Q  -1.3290  11.16$  15.5$  2$
|388>   Q  0.6645  12.95$  2.04$  8.63$
|389>   Q  0.6645  13.89$  2.31$  9.75$
|390>   Q  -1.3290  13.58$  1.85$  9.14$
|391>   Q  0.6645  12.69$  16.82$  21.67$
|392>   Q  0.6645  11.66$  15.87$  20.77$
|393>   Q  -1.3290  12.3$  16.05$  21.38$
|394>   Q  0.6645  17.97$  19.35$  10.2$
|395>   Q  0.6645  18.46$  17.96$  9.79$
|396>   Q  -1.3290  18.11$  18.53$  10.29$
|397>   Q  0.6645  8.39$  7.41$  3.46$
|398>   Q  0.6645  7.02$  7.75$  2.96$
|399>   Q  -1.3290  7.59$  7.31$  3.34$
|400>   Q  0.6645  6.94$  9.63$  20.97$
|401>   Q  0.6645  7.24$  8.22$  20.38$
|402>   Q  -1.3290  7.32$  8.85$  20.95$
|403>   Q  0.6645  2.5$  18.69$  6.56$
|404>   Q  0.6645  3.16$  17.3$  6.16$
|405>   Q  -1.3290  2.9$  17.93$  6.69$
|406>   Q  0.6645  6.5$  8.78$  1.06$
|407>   Q  0.6645  6.2$  9.81$  2.1$
|408>   Q  -1.3290  6.1$  9.1$  1.73$
|409>   Q  0.6645  3$  12.52$  14.54$
|410>   Q  0.6645  1.53$  12.81$  14.8$
|411>   Q  -1.3290  2.19$  12.46$  14.4$
|412>   Q  0.6645  16.89$  15.31$  5.81$
|413>   Q  0.6645  17.1$  16.83$  5.52$
|414>   Q  -1.3290  16.72$  16.07$  5.47$
|415>   Q  0.6645  1.88$  11.43$  7.56$
|416>   Q  0.6645  2.56$  12.55$  8.45$
|417>   Q  -1.3290  2.48$  11.8$  8.06$
|418>   Q  0.6645  8.39$  4.9$  17.88$
|419>   Q  0.6645  8.97$  4.8$  19.23$
|420>   Q  -1.3290  8.85$  4.52$  18.44$
|421>   Q  0.6645  15.94$  8.96$  4.85$
|422>   Q  0.6645  15.02$  9.12$  3.55$
|423>   Q  -1.3290  15.7$  9.24$  4.07$
|424>   Q  0.6645  9.01$  10.55$  18.14$
|425>   Q  0.6645  8.48$  11.76$  18.95$
|426>   Q  -1.3290  8.45$  11.15$  18.34$
|427>   Q  0.6645  8.38$  14.71$  5.5$
|428>   Q  0.6645  8.57$  15.1$  3.96$
|429>   Q  -1.3290  8.65$  14.62$  4.67$
|430>   Q  0.6645  3.74$  13.79$  18.39$
|431>   Q  0.6645  4.62$  13.65$  17.11$
|432>   Q  -1.3290  4.29$  14.05$  17.79$
|433>   Q  0.6645  11.29$  5.73$  0.3$
|434>   Q  0.6645  9.77$  5.95$  -0.02$
|435>   Q  -1.3290  10.58$  6.18$  0.2$
|436>   Q  0.6645  2.66$  8.15$  8.59$
|437>   Q  0.6645  4.04$  8.89$  8.78$
|438>   Q  -1.3290  3.48$  8.25$  8.84$
|439>   Q  0.6645  5.49$  19.24$  8.43$
|440>   Q  0.6645  4.66$  18.96$  7.25$
|441>   Q  -1.3290  5.37$  18.93$  7.69$
|442>   Q  0.6645  12.79$  13.08$  17.43$
|443>   Q  0.6645  13.97$  13.96$  17.81$
|444>   Q  -1.3290  13.24$  13.59$  17.93$
|445>   Q  0.6645  13.58$  3.86$  15.16$
|446>   Q  0.6645  14.93$  3.51$  15.49$
|447>   Q  -1.3290  14.35$  4.06$  15.29$
|448>   Q  0.6645  2.94$  9.9$  17.43$
|449>   Q  0.6645  4.48$  10.01$  17.59$
|450>   Q  -1.3290  3.72$  10.3$  17.44$
|451>   Q  0.6645  16.38$  13.14$  3.54$
|452>   Q  0.6645  17.55$  12.69$  2.69$
|453>   Q  -1.3290  16.95$  13.24$  2.96$
|454>   Q  0.6645  14.79$  8.59$  13.95$
|455>   Q  0.6645  15.24$  9.35$  12.63$
|456>   Q  -1.3290  14.68$  8.92$  13.14$
|457>   Q  0.6645  7.73$  12.83$  1.5$
|458>   Q  0.6645  6.96$  13.86$  0.66$
|459>   Q  -1.3290  7.23$  13.12$  0.84$
|460>   Q  0.6645  9.31$  15.99$  2.26$
|461>   Q  0.6645  7.76$  16.19$  1.87$
|462>   Q  -1.3290  8.47$  16.18$  2.38$
|463>   Q  0.6645  7$  2.99$  7.75$
|464>   Q  0.6645  8.28$  3.78$  7.31$
|465>   Q  -1.3290  7.76$  3.36$  7.83$
|466>   Q  0.6645  10.39$  19.09$  19.12$
|467>   Q  0.6645  11.2$  18.51$  20.43$
|468>   Q  -1.3290  10.6$  18.54$  19.79$
|469>   Q  0.6645  4.49$  3.11$  10.74$
|470>   Q  0.6645  4.77$  2.14$  9.45$
|471>   Q  -1.3290  4.62$  2.37$  10.29$
|472>   Q  0.6645  14.82$  5.36$  13.84$
|473>   Q  0.6645  15.15$  6.63$  12.87$
|474>   Q  -1.3290  15.29$  5.85$  13.29$
|475>   Q  0.6645  12.61$  3.61$  0.8$
|476>   Q  0.6645  11.34$  2.83$  1.06$
|477>   Q  -1.3290  11.85$  3.49$  1.09$
|478>   Q  0.6645  10.5$  4.62$  3.8$
|479>   Q  0.6645  9.81$  3.21$  3.87$
|480>   Q  -1.3290  9.83$  4.08$  3.82$
|481>   Q  0.6645  16.59$  5.71$  8.95$
|482>   Q  0.6645  17.84$  5.35$  9.56$
|483>   Q  -1.3290  17.39$  5.76$  9.01$
|484>   Q  0.6645  13.49$  2.96$  12.18$
|485>   Q  0.6645  13.72$  4.38$  11.58$
|486>   Q  -1.3290  13.64$  3.52$  11.56$
|487>   Q  0.6645  3.29$  5.13$  10.5$
|488>   Q  0.6645  3.95$  4.86$  11.78$
|489>   Q  -1.3290  3.87$  4.84$  10.98$
|490>   Q  0.6645  11.43$  13.86$  3.6$
|491>   Q  0.6645  11.92$  12.94$  4.66$
|492>   Q  -1.3290  12$  13.48$  4.02$
|493>   Q  0.6645  14.47$  0.55$  13.28$
|494>   Q  0.6645  14.2$  0.4$  11.7$
|495>   Q  -1.3290  14.08$  0.67$  12.5$
|496>   Q  0.6645  15.54$  15.9$  19.47$
|497>   Q  0.6645  15.14$  16.28$  18.14$
|498>   Q  -1.3290  15.39$  16.46$  18.89$
|499>   Q  0.6645  9.71$  9.23$  5.21$
|500>   Q  0.6645  8.34$  9.72$  4.91$
|501>   Q  -1.3290  9.15$  9.82$  5.12$
|502>   Q  0.6645  8.52$  12.96$  21.12$
|503>   Q  0.6645  8.94$  13.57$  19.72$
|504>   Q  -1.3290  8.93$  13.01$  20.37$
|505>   Q  0.6645  3.32$  17.96$  16.41$
|506>   Q  0.6645  3.6$  17.19$  15.08$
|507>   Q  -1.3290  3.72$  17.8$  15.65$
|508>   Q  0.6645  11.37$  2.81$  11.69$
|509>   Q  0.6645  10$  3.32$  12.04$
|510>   Q  -1.3290  10.57$  2.73$  11.82$
|511>   Q  0.6645  20.07$  12.69$  7.84$
|512>   Q  0.6645  19.42$  11.24$  7.52$
|513>   Q  -1.3290  19.58$  12.1$  7.41$
|514>   Q  0.6645  5.59$  20.66$  10.74$
|515>   Q  0.6645  5.42$  21.59$  9.41$
|516>   Q  -1.3290  5.61$  20.87$  9.88$
|517>   Q  0.6645  19.36$  12.42$  5.49$
|518>   Q  0.6645  18.4$  13.3$  4.54$
|519>   Q  -1.3290  19.09$  12.83$  4.75$
|520>   Q  0.6645  6.54$  10.27$  8.72$
|521>   Q  0.6645  6.41$  8.92$  9.24$
|522>   Q  -1.3290  6.12$  9.58$  8.85$
|523>   Q  0.6645  6.49$  7.99$  5.92$
|524>   Q  0.6645  6.42$  8.85$  7.15$
|525>   Q  -1.3290  6.47$  8.73$  6.29$
|526>   Q  0.6645  1.95$  7.63$  14.14$
|527>   Q  0.6645  1.31$  6.56$  13.35$
|528>   Q  -1.3290  1.62$  6.86$  14.07$
|529>   Q  0.6645  13.24$  11.18$  19.43$
|530>   Q  0.6645  14.8$  10.91$  19.74$
|531>   Q  -1.3290  14.05$  10.9$  19.29$
|532>   Q  0.6645  10.05$  19.07$  7.86$
|533>   Q  0.6645  10.04$  18.75$  6.41$
|534>   Q  -1.3290  10.4$  19$  7.12$
|535>   Q  0.6645  16.8$  6.21$  14.42$
|536>   Q  0.6645  17.8$  7.22$  13.74$
|537>   Q  -1.3290  17.41$  6.81$  14.4$
|538>   Q  0.6645  10.85$  10.09$  1.09$
|539>   Q  0.6645  11.49$  11.4$  1.49$
|540>   Q  -1.3290  11.21$  10.62$  1.62$
|541>   Q  0.6645  14.1$  19.88$  10.12$
|542>   Q  0.6645  15.02$  19.77$  11.33$
|543>   Q  -1.3290  14.72$  20.11$  10.61$
|544>   Q  0.6645  15.09$  16.71$  16.34$
|545>   Q  0.6645  13.56$  16.56$  16.58$
|546>   Q  -1.3290  14.38$  16.3$  16.45$
|547>   Q  0.6645  16.69$  4.36$  12.38$
|548>   Q  0.6645  17.03$  2.98$  11.87$
|549>   Q  -1.3290  17.12$  3.81$  11.91$
|550>   Q  0.6645  12.13$  15.41$  18.56$
|551>   Q  0.6645  11.66$  16.81$  18.63$
|552>   Q  -1.3290  11.58$  16$  18.76$
|553>   Q  0.6645  5.82$  4.33$  3.72$
|554>   Q  0.6645  4.49$  5.01$  3.15$
|555>   Q  -1.3290  4.97$  4.49$  3.63$
|556>   Q  0.6645  8.55$  2$  8.76$
|557>   Q  0.6645  9.54$  1.76$  9.95$
|558>   Q  -1.3290  9.11$  1.55$  9.24$
|559>   Q  0.6645  1.5$  16.25$  12.23$
|560>   Q  0.6645  1.46$  14.86$  11.46$
|561>   Q  -1.3290  1.47$  15.73$  11.52$
|562>   Q  0.6645  19.42$  15.05$  10.91$
|563>   Q  0.6645  20.44$  15.47$  12.09$
|564>   Q  -1.3290  19.97$  14.91$  11.58$
|565>   Q  0.6645  12.37$  11.09$  5.98$
|566>   Q  0.6645  10.89$  11.13$  5.44$
|567>   Q  -1.3290  11.61$  11.45$  5.75$
|568>   Q  0.6645  5.62$  5.91$  6.17$
|569>   Q  0.6645  6.29$  6.07$  4.9$
|570>   Q  -1.3290  6.28$  5.97$  5.71$
|571>   Q  0.6645  15.38$  18.77$  13.68$
|572>   Q  0.6645  14.02$  18.76$  12.98$
|573>   Q  -1.3290  14.83$  18.59$  13.02$
|574>   Q  0.6645  3.87$  5.68$  13.76$
|575>   Q  0.6645  5.06$  6.54$  13.99$
|576>   Q  -1.3290  4.58$  6.03$  13.54$
|577>   Q  0.6645  17.47$  10.1$  11.17$
|578>   Q  0.6645  17.48$  10.03$  12.65$
|579>   Q  -1.3290  17.24$  9.78$  11.9$
|580>   Q  0.6645  15.89$  12.79$  10.01$
|581>   Q  0.6645  16.37$  13.24$  8.5$
|582>   Q  -1.3290  16.45$  13.06$  9.36$
|583>   Q  0.6645  5.35$  16.41$  9.87$
|584>   Q  0.6645  5.01$  16.48$  8.43$
|585>   Q  -1.3290  5.21$  16.07$  9.15$
|586>   Q  0.6645  6.2$  9.19$  16.68$
|587>   Q  0.6645  7.04$  9.74$  17.89$
|588>   Q  -1.3290  6.42$  9.29$  17.52$
|589>   Q  0.6645  7.42$  3.55$  14.19$
|590>   Q  0.6645  7.78$  4.58$  13.15$
|591>   Q  -1.3290  7.69$  4.31$  13.95$
|592>   Q  0.6645  2.89$  8.79$  10.83$
|593>   Q  0.6645  2.91$  10.17$  11.64$
|594>   Q  -1.3290  2.77$  9.33$  11.5$
|595>   Q  0.6645  6.58$  4.85$  9.05$
|596>   Q  0.6645  5.65$  5.27$  10.28$
|597>   Q  -1.3290  6.37$  5.18$  9.82$
|598>   Q  0.6645  3.31$  15.45$  13.64$
|599>   Q  0.6645  2.18$  15.54$  14.65$
|600>   Q  -1.3290  2.7$  15.82$  14.05$
|601>   Q  0.6645  9.76$  19.9$  12.92$
|602>   Q  0.6645  10.48$  20.89$  13.68$
|603>   Q  -1.3290  9.97$  20.26$  13.61$
|604>   Q  0.6645  12.41$  12.91$  -0.15$
|605>   Q  0.6645  12.12$  13.77$  1.12$
|606>   Q  -1.3290  12.36$  13.09$  0.66$
|607>   Q  0.6645  15.97$  6.15$  6.06$
|608>   Q  0.6645  16.74$  7.36$  6.7$
|609>   Q  -1.3290  16.27$  6.94$  6.11$
|610>   Q  0.6645  5.09$  10.04$  6.23$
|611>   Q  0.6645  3.76$  10.63$  6.83$
|612>   Q  -1.3290  4.35$  10.49$  6.22$
|613>   Q  0.6645  14.41$  11.4$  17.31$
|614>   Q  0.6645  14.74$  10.52$  16.15$
|615>   Q  -1.3290  14.79$  11.22$  16.59$
|616>   Q  0.6645  16.4$  8.54$  15.51$
|617>   Q  0.6645  15.1$  8.28$  16.12$
|618>   Q  -1.3290  15.59$  8.65$  15.62$
|619>   Q  0.6645  7.73$  20.54$  9.35$
|620>   Q  0.6645  8.94$  21.35$  9.06$
|621>   Q  -1.3290  8.5$  20.64$  9.13$
|622>   Q  0.6645  8.74$  18.95$  3.92$
|623>   Q  0.6645  8.84$  17.44$  3.68$
|624>   Q  -1.3290  8.81$  18.15$  4.17$
|625>   Q  0.6645  5.63$  18.7$  19.42$
|626>   Q  0.6645  6.15$  18.06$  18.08$
|627>   Q  -1.3290  6.05$  18.67$  18.65$
|628>   Q  0.6645  15.31$  4.11$  5.48$
|629>   Q  0.6645  13.9$  4.21$  4.93$
|630>   Q  -1.3290  14.59$  4.51$  5.3$
|631>   Q  0.6645  18.08$  11.08$  15.06$
|632>   Q  0.6645  19.25$  10.4$  14.32$
|633>   Q  -1.3290  18.51$  10.83$  14.36$
|634>   Q  0.6645  10.3$  8.2$  21.71$
|635>   Q  0.6645  9.2$  9.19$  21.34$
|636>   Q  -1.3290  10$  8.96$  21.58$
|637>   Q  0.6645  8.15$  1.64$  15.02$
|638>   Q  0.6645  7.54$  1.41$  13.44$
|639>   Q  -1.3290  7.55$  1.69$  14.31$
|640>   Q  0.6645  7.52$  17.38$  5.42$
|641>   Q  0.6645  6.57$  17.64$  6.51$
|642>   Q  -1.3290  6.91$  17.2$  5.95$
|643> *
|644> 
|645>                          ****END OF INPUT****
================================================================================

                     *******************************
                     * Energy+Gradient Calculation *
                     *******************************

---------------------------------
CARTESIAN COORDINATES (ANGSTROEM)
---------------------------------
  C     10.830000   12.700000   12.230000
  H     11.540000   13.560000   12.290000
  H     10.810000   12.020000   13.070000
  C     11.260000   11.890000   11.030000
  H     11.130000   12.380000   10.090000
  H     12.350000   11.660000   11.100000
  C     10.480000   10.610000   10.910000
  H      9.450000   10.810000   10.670000
  H     10.530000   10.150000   11.860000
  C     11.030000    9.780000    9.720000
  H     12.080000    9.860000    9.720000
  H     10.580000   10.070000    8.730000
  O     10.760000    8.380000    9.870000
  H     10.880000    7.950000    8.980000
  O      9.590000   13.160000   11.990000
  H      9.650000   13.850000   11.280000
  O     13.190000   14.080000    8.910000
  H     13.420000   14.320000    9.820000
  H     12.240000   14.210000    8.790000
  O      9.580000    8.920000   14.180000
  H      8.810000    9.300000   13.740000
  H      9.240000    8.740000   15.070000
  O      9.280000   13.840000   15.610000
  H      9.170000   13.860000   16.560000
  H     10.220000   13.590000   15.480000
  O     11.030000   16.650000   10.130000
  H     11.590000   16.330000   10.910000
  H     10.270000   16.120000    9.930000
  O     14.340000    9.580000    9.920000
  H     14.470000   10.040000    9.050000
  H     15.260000    9.300000   10.020000
  O     13.490000    8.360000    6.940000
  H     13.630000    7.970000    6.060000
  H     12.550000    8.320000    7.110000
  O     14.950000   12.030000   11.400000
  H     15.120000   11.980000   12.360000
  H     14.660000   11.160000   11.260000
  O     10.730000   14.000000    7.360000
  H     10.950000   13.220000    6.870000
  H     11.140000   14.780000    7.040000
  O     16.100000    9.720000    7.170000
  H     15.350000    9.170000    7.380000
  H     16.710000    9.480000    7.900000
  O     10.980000    7.510000    6.210000
  H     11.430000    7.310000    5.370000
  H     10.320000    6.820000    6.300000
  O      7.300000   11.930000   15.850000
  H      8.140000   12.100000   15.420000
  H      7.570000   11.770000   16.720000
  O      9.840000   16.940000   15.610000
  H      9.420000   16.140000   15.810000
  H      9.310000   17.330000   14.890000
  O     13.280000   18.640000    8.920000
  H     13.780000   18.000000    8.430000
  H     12.760000   18.090000    9.420000
  O     13.080000   15.040000   14.080000
  H     13.640000   15.020000   13.280000
  H     13.710000   15.260000   14.750000
  O     13.310000    7.070000    4.480000
  H     13.900000    6.340000    4.450000
  H     13.530000    7.630000    3.700000
  O     12.030000   12.780000   15.430000
  H     12.260000   11.890000   15.050000
  H     12.480000   13.530000   14.920000
  O      9.360000    7.490000   16.550000
  H      9.580000    7.790000   17.440000
  H      8.520000    6.930000   16.660000
  O     14.680000   16.670000    7.660000
  H     15.290000   16.430000    6.940000
  H     14.560000   15.820000    8.130000
  O      9.640000   19.060000   11.200000
  H      9.290000   19.650000   10.440000
  H     10.310000   18.420000   10.830000
  O      6.930000   15.270000   14.460000
  H      7.590000   14.610000   14.710000
  H      7.450000   15.930000   13.990000
  O      6.770000   12.260000   12.750000
  H      6.940000   11.940000   13.640000
  H      7.630000   12.550000   12.380000
  O      8.930000   11.620000    7.610000
  H      9.050000   12.570000    7.400000
  H      9.130000   11.140000    6.860000
  O      8.360000   14.540000   18.140000
  H      7.490000   14.820000   17.700000
  H      8.760000   15.320000   18.510000
  O     14.620000    6.060000    8.440000
  H     14.380000    6.700000    7.830000
  H     14.190000    6.280000    9.250000
  O      7.510000    9.720000   12.630000
  H      7.100000   10.580000   12.390000
  H      7.500000    9.060000   11.940000
  O     14.060000   14.670000   11.420000
  H     14.390000   13.840000   11.720000
  H     14.840000   15.270000   11.410000
  O     11.510000   16.860000   12.760000
  H     10.830000   17.240000   13.350000
  H     11.930000   16.200000   13.250000
  O     13.000000    6.150000   10.980000
  H     12.270000    6.110000   10.330000
  H     13.030000    7.120000   10.990000
  O     12.430000   10.130000   14.590000
  H     11.530000    9.870000   14.390000
  H     12.910000    9.940000   13.790000
  O     10.750000    5.280000    9.130000
  H     10.070000    5.300000    8.460000
  H     10.200000    4.780000    9.800000
  O      7.600000    7.870000   10.370000
  H      8.520000    8.010000   10.300000
  H      7.410000    6.880000   10.170000
  O      8.660000   14.900000    9.450000
  H      7.780000   15.030000    9.090000
  H      9.130000   14.540000    8.690000
  O     13.760000   11.180000    7.550000
  H     13.700000   12.130000    7.770000
  H     14.590000   11.140000    7.060000
  O     10.380000    6.980000   12.700000
  H      9.900000    7.740000   13.070000
  H     10.970000    7.380000   12.030000
  Q     11.820000    2.100000   14.790000
  Q     11.420000    3.600000   14.560000
  Q     11.810000    2.940000   14.960000
  Q     13.330000   20.330000    7.590000
  Q     13.790000   21.690000    8.150000
  Q     13.650000   21.120000    7.520000
  Q     10.260000    8.850000    2.730000
  Q     10.500000    7.460000    2.070000
  Q     10.150000    8.010000    2.660000
  Q      9.860000    0.940000    6.940000
  Q     10.000000   -0.590000    6.780000
  Q      9.650000    0.170000    6.620000
  Q      4.250000    6.430000    8.400000
  Q      3.540000    5.170000    7.800000
  Q      4.070000    5.840000    7.800000
  Q     13.050000    9.240000   16.500000
  Q     13.510000    9.340000   18.080000
  Q     13.010000    9.120000   17.380000
  Q      2.470000   10.150000   14.630000
  Q      2.940000    9.280000   13.420000
  Q      2.810000    9.450000   14.240000
  Q      8.590000   17.630000   12.410000
  Q      8.100000   18.410000   13.690000
  Q      8.370000   17.710000   13.260000
  Q     17.560000   12.960000    7.020000
  Q     16.310000   12.960000    6.170000
  Q     16.890000   13.310000    6.670000
  Q     20.620000   12.820000   11.700000
  Q     22.040000   12.180000   11.420000
  Q     21.170000   12.250000   11.380000
  Q      5.660000   12.360000   15.460000
  Q      4.290000   11.610000   15.900000
  Q      4.780000   12.300000   15.650000
  Q     16.070000   13.470000   14.120000
  Q     15.680000   12.130000   14.600000
  Q     15.630000   12.760000   14.110000
  Q     18.000000    8.070000    9.330000
  Q     18.340000    9.540000    9.290000
  Q     17.900000    8.860000    9.120000
  Q      7.690000    1.610000   10.900000
  Q      6.230000    1.860000   11.380000
  Q      7.050000    1.620000   11.460000
  Q     15.140000   11.370000    4.760000
  Q     14.400000   12.700000    4.440000
  Q     14.990000   12.180000    4.800000
  Q     17.040000    3.220000    6.880000
  Q     17.620000    2.930000    5.410000
  Q     17.240000    3.390000    6.050000
  Q      7.850000   21.360000    6.620000
  Q      6.730000   20.420000    6.720000
  Q      7.050000   21.130000    6.530000
  Q     13.090000    4.350000    7.210000
  Q     11.880000    4.270000    8.030000
  Q     12.350000    4.060000    7.410000
  Q      2.200000   12.810000   12.410000
  Q      2.830000   12.750000   11.080000
  Q      2.190000   12.830000   11.590000
  Q     18.660000    4.480000    6.310000
  Q     18.930000    5.280000    7.560000
  Q     19.130000    5.010000    6.790000
  Q     19.790000    6.810000   11.900000
  Q     19.670000    6.020000   13.310000
  Q     19.830000    6.690000   12.750000
  Q      8.900000   17.250000   19.820000
  Q      7.650000   16.950000   19.050000
  Q      8.220000   16.850000   19.680000
  Q     17.760000   10.620000    1.160000
  Q     16.810000   10.210000    2.350000
  Q     17.420000   10.690000    1.930000
  Q     12.760000   20.330000   18.270000
  Q     11.440000   21.140000   18.060000
  Q     12.100000   20.660000   17.840000
  Q      7.020000   19.340000   15.630000
  Q      5.530000   18.830000   15.280000
  Q      6.330000   19.150000   15.140000
  Q      6.060000    6.330000   18.870000
  Q      6.560000    7.660000   18.560000
  Q      6.460000    7.000000   19.050000
  Q      2.610000   14.940000   16.820000
  Q      1.750000   16.220000   16.990000
  Q      1.980000   15.480000   16.640000
  Q     10.970000   12.130000   19.970000
  Q     12.220000   12.920000   19.400000
  Q     11.790000   12.330000   19.860000
  Q     18.490000   18.630000   12.220000
  Q     19.530000   19.660000   12.760000
  Q     19.030000   18.960000   12.790000
  Q     12.820000    9.560000    2.080000
  Q     13.950000    8.830000    1.340000
  Q     13.460000    8.980000    2.000000
  Q      9.450000   19.930000   15.800000
  Q      9.130000   18.660000   16.670000
  Q      9.080000   19.480000   16.430000
  Q     15.180000   15.800000    4.150000
  Q     13.860000   15.010000    3.990000
  Q     14.510000   15.490000    3.730000
  Q      8.450000    4.450000    2.460000
  Q      7.610000    5.630000    1.960000
  Q      7.930000    4.860000    1.910000
  Q      4.910000   14.070000   12.160000
  Q      5.350000   15.030000   13.300000
  Q      4.890000   14.780000   12.600000
  Q     19.710000   11.470000   10.270000
  Q     18.350000   11.770000    9.730000
  Q     18.920000   11.280000   10.090000
  Q     11.950000    5.470000   18.040000
  Q     12.040000    6.620000   17.080000
  Q     12.350000    6.030000   17.620000
  Q      3.380000   14.980000    8.580000
  Q      1.880000   15.040000    8.940000
  Q      2.560000   14.780000    8.510000
  Q     13.010000   16.640000    3.490000
  Q     12.050000   16.950000    4.630000
  Q     12.290000   16.910000    3.840000
  Q      7.540000    5.400000   15.850000
  Q      6.410000    5.230000   16.900000
  Q      7.120000    5.570000   16.590000
  Q     13.030000   16.730000    6.780000
  Q     11.780000   17.580000    6.910000
  Q     12.210000   16.900000    6.680000
  Q     19.230000   12.640000   13.890000
  Q     19.760000   13.960000   13.210000
  Q     19.630000   13.370000   13.850000
  Q      8.820000   13.000000    3.730000
  Q      9.300000   11.610000    3.190000
  Q      8.790000   12.260000    3.220000
  Q     18.280000   11.220000   17.330000
  Q     16.780000   11.340000   16.720000
  Q     17.630000   11.390000   16.750000
  Q      5.750000   18.360000   11.900000
  Q      5.700000   16.860000   11.800000
  Q      5.890000   17.630000   11.520000
  Q     16.740000   13.090000   17.610000
  Q     16.120000   13.180000   18.910000
  Q     16.400000   13.510000   18.240000
  Q      0.880000    9.330000   11.610000
  Q     -0.410000    9.890000   10.930000
  Q      0.060000    9.350000   11.390000
  Q      6.090000   16.450000   16.350000
  Q      5.480000   15.780000   17.510000
  Q      6.070000   16.230000   17.150000
  Q     20.910000   10.390000    6.310000
  Q     19.660000    9.580000    5.610000
  Q     20.200000    9.870000    6.250000
  Q      3.460000    7.350000    6.590000
  Q      3.460000    8.820000    6.190000
  Q      3.190000    8.030000    6.160000
  Q     11.370000   17.280000   16.320000
  Q     11.910000   18.600000   16.760000
  Q     11.950000   17.760000   16.670000
  Q     11.400000    9.400000   18.310000
  Q     10.500000    9.170000   19.490000
  Q     10.680000    9.250000   18.680000
  Q      5.240000   16.260000    4.790000
  Q      4.000000   15.230000    4.850000
  Q      4.420000   15.960000    4.740000
  Q     10.520000    1.050000    2.950000
  Q     10.380000    0.680000    4.440000
  Q     10.330000    1.190000    3.760000
  Q      8.310000    5.690000    6.170000
  Q      9.460000    5.100000    5.590000
  Q      9.090000    5.450000    6.220000
  Q      6.390000   13.230000    8.160000
  Q      7.440000   12.140000    8.560000
  Q      6.710000   12.550000    8.630000
  Q      4.590000    8.850000   14.620000
  Q      6.200000    8.760000   14.270000
  Q      5.440000    8.700000   14.760000
  Q      6.100000   10.800000    4.260000
  Q      6.980000   11.580000    3.230000
  Q      6.260000   11.230000    3.550000
  Q     17.480000   14.700000    9.700000
  Q     18.450000   15.220000    8.680000
  Q     18.100000   15.180000    9.430000
  Q      5.800000   20.130000   13.360000
  Q      4.490000   20.600000   12.630000
  Q      5.260000   20.190000   12.690000
  Q     17.410000    6.590000    2.740000
  Q     17.330000    6.810000    4.270000
  Q     17.690000    6.590000    3.560000
  Q      5.180000   12.490000   10.040000
  Q      5.470000   12.090000   11.470000
  Q      4.990000   12.230000   10.820000
  Q     10.620000    5.490000   13.500000
  Q      9.490000    4.540000   14.050000
  Q     10.270000    4.740000   13.800000
  Q     12.190000   19.820000   14.160000
  Q     12.580000   18.490000   14.830000
  Q     12.730000   19.250000   14.440000
  Q      5.860000    0.930000    7.320000
  Q      4.760000    2.140000    7.310000
  Q      5.410000    1.630000    7.590000
  Q     10.980000    1.370000   13.120000
  Q     12.260000    0.620000   13.160000
  Q     11.470000    0.730000   13.350000
  Q     17.650000   18.990000   14.350000
  Q     17.020000   18.390000   15.500000
  Q     17.010000   18.910000   14.880000
  Q     14.300000   12.810000    1.020000
  Q     15.760000   12.900000    1.470000
  Q     15.140000   12.790000    0.910000
  Q     17.390000   16.260000   15.690000
  Q     17.390000   16.400000   17.150000
  Q     17.260000   16.680000   16.380000
  Q     15.790000    6.580000   18.060000
  Q     14.410000    6.540000   17.270000
  Q     15.240000    6.670000   17.380000
  Q      8.130000    5.160000   10.800000
  Q      9.330000    5.820000   11.570000
  Q      8.890000    5.160000   11.210000
  Q      3.660000   12.880000    4.920000
  Q      3.700000   12.840000    6.440000
  Q      3.720000   13.210000    5.690000
  Q     18.340000    2.790000    8.760000
  Q     17.150000    1.700000    8.900000
  Q     17.520000    2.450000    8.730000
  Q     16.040000   17.230000   11.890000
  Q     16.940000   16.420000   11.130000
  Q     16.360000   16.480000   11.660000
  Q     14.230000    2.050000    3.550000
  Q     14.470000    0.580000    3.870000
  Q     14.660000    1.310000    3.540000
  Q     12.450000    2.200000    6.670000
  Q     12.600000    0.630000    6.610000
  Q     12.250000    1.410000    6.440000
  Q      2.740000   11.510000    2.700000
  Q      4.120000   11.300000    3.530000
  Q      3.420000   11.720000    3.180000
  Q      6.420000   15.280000    6.570000
  Q      6.040000   13.820000    6.210000
  Q      6.490000   14.430000    6.580000
  Q     20.690000   14.560000    8.450000
  Q     20.840000   13.620000    9.680000
  Q     20.950000   13.840000    8.870000
  Q     17.330000   15.380000   13.340000
  Q     18.200000   14.610000   14.270000
  Q     17.510000   15.020000   14.070000
  Q     12.360000    2.460000    4.560000
  Q     12.510000    3.100000    3.200000
  Q     12.720000    2.950000    3.970000
  Q     11.280000   15.580000    1.180000
  Q     11.430000   16.040000    2.600000
  Q     11.160000   15.500000    2.000000
  Q     12.950000    2.040000    8.630000
  Q     13.890000    2.310000    9.750000
  Q     13.580000    1.850000    9.140000
  Q     12.690000   16.820000   21.670000
  Q     11.660000   15.870000   20.770000
  Q     12.300000   16.050000   21.380000
  Q     17.970000   19.350000   10.200000
  Q     18.460000   17.960000    9.790000
  Q     18.110000   18.530000   10.290000
  Q      8.390000    7.410000    3.460000
  Q      7.020000    7.750000    2.960000
  Q      7.590000    7.310000    3.340000
  Q      6.940000    9.630000   20.970000
  Q      7.240000    8.220000   20.380000
  Q      7.320000    8.850000   20.950000
  Q      2.500000   18.690000    6.560000
  Q      3.160000   17.300000    6.160000
  Q      2.900000   17.930000    6.690000
  Q      6.500000    8.780000    1.060000
  Q      6.200000    9.810000    2.100000
  Q      6.100000    9.100000    1.730000
  Q      3.000000   12.520000   14.540000
  Q      1.530000   12.810000   14.800000
  Q      2.190000   12.460000   14.400000
  Q     16.890000   15.310000    5.810000
  Q     17.100000   16.830000    5.520000
  Q     16.720000   16.070000    5.470000
  Q      1.880000   11.430000    7.560000
  Q      2.560000   12.550000    8.450000
  Q      2.480000   11.800000    8.060000
  Q      8.390000    4.900000   17.880000
  Q      8.970000    4.800000   19.230000
  Q      8.850000    4.520000   18.440000
  Q     15.940000    8.960000    4.850000
  Q     15.020000    9.120000    3.550000
  Q     15.700000    9.240000    4.070000
  Q      9.010000   10.550000   18.140000
  Q      8.480000   11.760000   18.950000
  Q      8.450000   11.150000   18.340000
  Q      8.380000   14.710000    5.500000
  Q      8.570000   15.100000    3.960000
  Q      8.650000   14.620000    4.670000
  Q      3.740000   13.790000   18.390000
  Q      4.620000   13.650000   17.110000
  Q      4.290000   14.050000   17.790000
  Q     11.290000    5.730000    0.300000
  Q      9.770000    5.950000   -0.020000
  Q     10.580000    6.180000    0.200000
  Q      2.660000    8.150000    8.590000
  Q      4.040000    8.890000    8.780000
  Q      3.480000    8.250000    8.840000
  Q      5.490000   19.240000    8.430000
  Q      4.660000   18.960000    7.250000
  Q      5.370000   18.930000    7.690000
  Q     12.790000   13.080000   17.430000
  Q     13.970000   13.960000   17.810000
  Q     13.240000   13.590000   17.930000
  Q     13.580000    3.860000   15.160000
  Q     14.930000    3.510000   15.490000
  Q     14.350000    4.060000   15.290000
  Q      2.940000    9.900000   17.430000
  Q      4.480000   10.010000   17.590000
  Q      3.720000   10.300000   17.440000
  Q     16.380000   13.140000    3.540000
  Q     17.550000   12.690000    2.690000
  Q     16.950000   13.240000    2.960000
  Q     14.790000    8.590000   13.950000
  Q     15.240000    9.350000   12.630000
  Q     14.680000    8.920000   13.140000
  Q      7.730000   12.830000    1.500000
  Q      6.960000   13.860000    0.660000
  Q      7.230000   13.120000    0.840000
  Q      9.310000   15.990000    2.260000
  Q      7.760000   16.190000    1.870000
  Q      8.470000   16.180000    2.380000
  Q      7.000000    2.990000    7.750000
  Q      8.280000    3.780000    7.310000
  Q      7.760000    3.360000    7.830000
  Q     10.390000   19.090000   19.120000
  Q     11.200000   18.510000   20.430000
  Q     10.600000   18.540000   19.790000
  Q      4.490000    3.110000   10.740000
  Q      4.770000    2.140000    9.450000
  Q      4.620000    2.370000   10.290000
  Q     14.820000    5.360000   13.840000
  Q     15.150000    6.630000   12.870000
  Q     15.290000    5.850000   13.290000
  Q     12.610000    3.610000    0.800000
  Q     11.340000    2.830000    1.060000
  Q     11.850000    3.490000    1.090000
  Q     10.500000    4.620000    3.800000
  Q      9.810000    3.210000    3.870000
  Q      9.830000    4.080000    3.820000
  Q     16.590000    5.710000    8.950000
  Q     17.840000    5.350000    9.560000
  Q     17.390000    5.760000    9.010000
  Q     13.490000    2.960000   12.180000
  Q     13.720000    4.380000   11.580000
  Q     13.640000    3.520000   11.560000
  Q      3.290000    5.130000   10.500000
  Q      3.950000    4.860000   11.780000
  Q      3.870000    4.840000   10.980000
  Q     11.430000   13.860000    3.600000
  Q     11.920000   12.940000    4.660000
  Q     12.000000   13.480000    4.020000
  Q     14.470000    0.550000   13.280000
  Q     14.200000    0.400000   11.700000
  Q     14.080000    0.670000   12.500000
  Q     15.540000   15.900000   19.470000
  Q     15.140000   16.280000   18.140000
  Q     15.390000   16.460000   18.890000
  Q      9.710000    9.230000    5.210000
  Q      8.340000    9.720000    4.910000
  Q      9.150000    9.820000    5.120000
  Q      8.520000   12.960000   21.120000
  Q      8.940000   13.570000   19.720000
  Q      8.930000   13.010000   20.370000
  Q      3.320000   17.960000   16.410000
  Q      3.600000   17.190000   15.080000
  Q      3.720000   17.800000   15.650000
  Q     11.370000    2.810000   11.690000
  Q     10.000000    3.320000   12.040000
  Q     10.570000    2.730000   11.820000
  Q     20.070000   12.690000    7.840000
  Q     19.420000   11.240000    7.520000
  Q     19.580000   12.100000    7.410000
  Q      5.590000   20.660000   10.740000
  Q      5.420000   21.590000    9.410000
  Q      5.610000   20.870000    9.880000
  Q     19.360000   12.420000    5.490000
  Q     18.400000   13.300000    4.540000
  Q     19.090000   12.830000    4.750000
  Q      6.540000   10.270000    8.720000
  Q      6.410000    8.920000    9.240000
  Q      6.120000    9.580000    8.850000
  Q      6.490000    7.990000    5.920000
  Q      6.420000    8.850000    7.150000
  Q      6.470000    8.730000    6.290000
  Q      1.950000    7.630000   14.140000
  Q      1.310000    6.560000   13.350000
  Q      1.620000    6.860000   14.070000
  Q     13.240000   11.180000   19.430000
  Q     14.800000   10.910000   19.740000
  Q     14.050000   10.900000   19.290000
  Q     10.050000   19.070000    7.860000
  Q     10.040000   18.750000    6.410000
  Q     10.400000   19.000000    7.120000
  Q     16.800000    6.210000   14.420000
  Q     17.800000    7.220000   13.740000
  Q     17.410000    6.810000   14.400000
  Q     10.850000   10.090000    1.090000
  Q     11.490000   11.400000    1.490000
  Q     11.210000   10.620000    1.620000
  Q     14.100000   19.880000   10.120000
  Q     15.020000   19.770000   11.330000
  Q     14.720000   20.110000   10.610000
  Q     15.090000   16.710000   16.340000
  Q     13.560000   16.560000   16.580000
  Q     14.380000   16.300000   16.450000
  Q     16.690000    4.360000   12.380000
  Q     17.030000    2.980000   11.870000
  Q     17.120000    3.810000   11.910000
  Q     12.130000   15.410000   18.560000
  Q     11.660000   16.810000   18.630000
  Q     11.580000   16.000000   18.760000
  Q      5.820000    4.330000    3.720000
  Q      4.490000    5.010000    3.150000
  Q      4.970000    4.490000    3.630000
  Q      8.550000    2.000000    8.760000
  Q      9.540000    1.760000    9.950000
  Q      9.110000    1.550000    9.240000
  Q      1.500000   16.250000   12.230000
  Q      1.460000   14.860000   11.460000
  Q      1.470000   15.730000   11.520000
  Q     19.420000   15.050000   10.910000
  Q     20.440000   15.470000   12.090000
  Q     19.970000   14.910000   11.580000
  Q     12.370000   11.090000    5.980000
  Q     10.890000   11.130000    5.440000
  Q     11.610000   11.450000    5.750000
  Q      5.620000    5.910000    6.170000
  Q      6.290000    6.070000    4.900000
  Q      6.280000    5.970000    5.710000
  Q     15.380000   18.770000   13.680000
  Q     14.020000   18.760000   12.980000
  Q     14.830000   18.590000   13.020000
  Q      3.870000    5.680000   13.760000
  Q      5.060000    6.540000   13.990000
  Q      4.580000    6.030000   13.540000
  Q     17.470000   10.100000   11.170000
  Q     17.480000   10.030000   12.650000
  Q     17.240000    9.780000   11.900000
  Q     15.890000   12.790000   10.010000
  Q     16.370000   13.240000    8.500000
  Q     16.450000   13.060000    9.360000
  Q      5.350000   16.410000    9.870000
  Q      5.010000   16.480000    8.430000
  Q      5.210000   16.070000    9.150000
  Q      6.200000    9.190000   16.680000
  Q      7.040000    9.740000   17.890000
  Q      6.420000    9.290000   17.520000
  Q      7.420000    3.550000   14.190000
  Q      7.780000    4.580000   13.150000
  Q      7.690000    4.310000   13.950000
  Q      2.890000    8.790000   10.830000
  Q      2.910000   10.170000   11.640000
  Q      2.770000    9.330000   11.500000
  Q      6.580000    4.850000    9.050000
  Q      5.650000    5.270000   10.280000
  Q      6.370000    5.180000    9.820000
  Q      3.310000   15.450000   13.640000
  Q      2.180000   15.540000   14.650000
  Q      2.700000   15.820000   14.050000
  Q      9.760000   19.900000   12.920000
  Q     10.480000   20.890000   13.680000
  Q      9.970000   20.260000   13.610000
  Q     12.410000   12.910000   -0.150000
  Q     12.120000   13.770000    1.120000
  Q     12.360000   13.090000    0.660000
  Q     15.970000    6.150000    6.060000
  Q     16.740000    7.360000    6.700000
  Q     16.270000    6.940000    6.110000
  Q      5.090000   10.040000    6.230000
  Q      3.760000   10.630000    6.830000
  Q      4.350000   10.490000    6.220000
  Q     14.410000   11.400000   17.310000
  Q     14.740000   10.520000   16.150000
  Q     14.790000   11.220000   16.590000
  Q     16.400000    8.540000   15.510000
  Q     15.100000    8.280000   16.120000
  Q     15.590000    8.650000   15.620000
  Q      7.730000   20.540000    9.350000
  Q      8.940000   21.350000    9.060000
  Q      8.500000   20.640000    9.130000
  Q      8.740000   18.950000    3.920000
  Q      8.840000   17.440000    3.680000
  Q      8.810000   18.150000    4.170000
  Q      5.630000   18.700000   19.420000
  Q      6.150000   18.060000   18.080000
  Q      6.050000   18.670000   18.650000
  Q     15.310000    4.110000    5.480000
  Q     13.900000    4.210000    4.930000
  Q     14.590000    4.510000    5.300000
  Q     18.080000   11.080000   15.060000
  Q     19.250000   10.400000   14.320000
  Q     18.510000   10.830000   14.360000
  Q     10.300000    8.200000   21.710000
  Q      9.200000    9.190000   21.340000
  Q     10.000000    8.960000   21.580000
  Q      8.150000    1.640000   15.020000
  Q      7.540000    1.410000   13.440000
  Q      7.550000    1.690000   14.310000
  Q      7.520000   17.380000    5.420000
  Q      6.570000   17.640000    6.510000
  Q      6.910000   17.200000    5.950000

----------------------------
CARTESIAN COORDINATES (A.U.)
----------------------------
  NO LB      ZA    FRAG     MASS         X           Y           Z
   0 C     6.0000    0    12.011   20.465734   23.999522   23.111351
   1 H     1.0000    0     1.008   21.807440   25.624686   23.224734
   2 H     1.0000    0     1.008   20.427940   22.714508   24.698721
   3 C     6.0000    0    12.011   21.278316   22.468844   20.843679
   4 H     1.0000    0     1.008   21.032652   23.394810   19.067337
   5 H     1.0000    0     1.008   23.338118   22.034207   20.975960
   6 C     6.0000    0    12.011   19.804330   20.049994   20.616912
   7 H     1.0000    0     1.008   17.857912   20.427940   20.163378
   8 H     1.0000    0     1.008   19.898816   19.180720   22.412152
   9 C     6.0000    0    12.011   20.843679   18.481522   18.368138
  10 H     1.0000    0     1.008   22.827892   18.632700   18.368138
  11 H     1.0000    0     1.008   19.993302   19.029542   16.497309
  12 O     8.0000    0    15.999   20.333453   15.835905   18.651597
  13 H     1.0000    0     1.008   20.560220   15.023323   16.969741
  14 O     8.0000    0    15.999   18.122474   24.868796   22.657816
  15 H     1.0000    0     1.008   18.235857   26.172707   21.316111
  16 O     8.0000    0    15.999   24.925488   26.607344   16.837460
  17 H     1.0000    0     1.008   25.360125   27.060878   18.557111
  18 H     1.0000    0     1.008   23.130248   26.853008   16.610693
  19 O     8.0000    0    15.999   18.103576   16.856357   26.796317
  20 H     1.0000    0     1.008   16.648487   17.574453   25.964837
  21 H     1.0000    0     1.008   17.461069   16.516206   28.478173
  22 O     8.0000    0    15.999   17.536659   26.153810   29.498625
  23 H     1.0000    0     1.008   17.328789   26.191604   31.293865
  24 H     1.0000    0     1.008   19.313001   25.681378   29.252961
  25 O     8.0000    0    15.999   20.843679   31.463940   19.142926
  26 H     1.0000    0     1.008   21.901926   30.859228   20.616912
  27 H     1.0000    0     1.008   19.407487   30.462385   18.764981
  28 O     8.0000    0    15.999   27.098673   18.103576   18.746083
  29 H     1.0000    0     1.008   27.344337   18.972850   17.102022
  30 H     1.0000    0     1.008   28.837221   17.574453   18.935056
  31 O     8.0000    0    15.999   25.492406   15.798110   13.114699
  32 H     1.0000    0     1.008   25.756967   15.061117   11.451740
  33 H     1.0000    0     1.008   23.716063   15.722521   13.435953
  34 O     8.0000    0    15.999   28.251406   22.733405   21.542878
  35 H     1.0000    0     1.008   28.572659   22.638919   23.357015
  36 H     1.0000    0     1.008   27.703385   21.089344   21.278316
  37 O     8.0000    0    15.999   20.276761   26.456166   13.908384
  38 H     1.0000    0     1.008   20.692501   24.982179   12.982419
  39 H     1.0000    0     1.008   21.051549   27.930152   13.303672
  40 O     8.0000    0    15.999   30.424591   18.368138   13.549336
  41 H     1.0000    0     1.008   29.007296   17.328789   13.946179
  42 H     1.0000    0     1.008   31.577324   17.914604   14.928836
  43 O     8.0000    0    15.999   20.749193   14.191843   11.735199
  44 H     1.0000    0     1.008   21.599570   13.813898   10.147829
  45 H     1.0000    0     1.008   19.501974   12.887932   11.905275
  46 O     8.0000    0    15.999   13.795001   22.544433   29.952159
  47 H     1.0000    0     1.008   15.382371   22.865686   29.139577
  48 H     1.0000    0     1.008   14.305227   22.242077   31.596221
  49 O     8.0000    0    15.999   18.594905   32.011961   29.498625
  50 H     1.0000    0     1.008   17.801220   30.500180   29.876570
  51 H     1.0000    0     1.008   17.593350   32.748954   28.138022
  52 O     8.0000    0    15.999   25.095563   35.224495   16.856357
  53 H     1.0000    0     1.008   26.040426   34.015070   15.930391
  54 H     1.0000    0     1.008   24.112905   34.185146   17.801220
  55 O     8.0000    0    15.999   24.717618   28.421481   26.607344
  56 H     1.0000    0     1.008   25.775864   28.383687   25.095563
  57 H     1.0000    0     1.008   25.908145   28.837221   27.873460
  58 O     8.0000    0    15.999   25.152255   13.360364    8.465973
  59 H     1.0000    0     1.008   26.267193   11.980864    8.409281
  60 H     1.0000    0     1.008   25.567995   14.418610    6.991987
  61 O     8.0000    0    15.999   22.733405   24.150700   29.158474
  62 H     1.0000    0     1.008   23.168042   22.468844   28.440378
  63 H     1.0000    0     1.008   23.583782   25.567995   28.194714
  64 O     8.0000    0    15.999   17.687837   14.154049   31.274968
  65 H     1.0000    0     1.008   18.103576   14.720967   32.956824
  66 H     1.0000    0     1.008   16.100467   13.095802   31.482837
  67 O     8.0000    0    15.999   27.741180   31.501735   14.475302
  68 H     1.0000    0     1.008   28.893913   31.048200   13.114699
  69 H     1.0000    0     1.008   27.514413   29.895467   15.363473
  70 O     8.0000    0    15.999   18.216960   36.018180   21.164933
  71 H     1.0000    0     1.008   17.555556   37.133119   19.728741
  72 H     1.0000    0     1.008   19.483076   34.808755   20.465734
  73 O     8.0000    0    15.999   13.095802   28.856118   27.325440
  74 H     1.0000    0     1.008   14.343021   27.608899   27.797871
  75 H     1.0000    0     1.008   14.078460   30.103337   26.437269
  76 O     8.0000    0    15.999   12.793446   23.168042   24.094008
  77 H     1.0000    0     1.008   13.114699   22.563330   25.775864
  78 H     1.0000    0     1.008   14.418610   23.716063   23.394810
  79 O     8.0000    0    15.999   16.875254   21.958618   14.380816
  80 H     1.0000    0     1.008   17.102022   23.753858   13.983973
  81 H     1.0000    0     1.008   17.253200   21.051549   12.963521
  82 O     8.0000    0    15.999   15.798110   27.476618   34.279632
  83 H     1.0000    0     1.008   14.154049   28.005741   33.448153
  84 H     1.0000    0     1.008   16.554001   28.950604   34.978831
  85 O     8.0000    0    15.999   27.627796   11.451740   15.949289
  86 H     1.0000    0     1.008   27.174262   12.661165   14.796556
  87 H     1.0000    0     1.008   26.815214   11.867480   17.479967
  88 O     8.0000    0    15.999   14.191843   18.368138   23.867241
  89 H     1.0000    0     1.008   13.417056   19.993302   23.413707
  90 H     1.0000    0     1.008   14.172946   17.120919   22.563330
  91 O     8.0000    0    15.999   26.569549   27.722282   21.580672
  92 H     1.0000    0     1.008   27.193159   26.153810   22.147590
  93 H     1.0000    0     1.008   28.043536   28.856118   21.561775
  94 O     8.0000    0    15.999   21.750748   31.860783   24.112905
  95 H     1.0000    0     1.008   20.465734   32.578879   25.227844
  96 H     1.0000    0     1.008   22.544433   30.613563   25.038871
  97 O     8.0000    0    15.999   24.566440   11.621816   20.749193
  98 H     1.0000    0     1.008   23.186940   11.546227   19.520871
  99 H     1.0000    0     1.008   24.623132   13.454850   20.768090
 100 O     8.0000    0    15.999   23.489296   19.142926   27.571104
 101 H     1.0000    0     1.008   21.788542   18.651597   27.193159
 102 H     1.0000    0     1.008   24.396364   18.783878   26.059323
 103 O     8.0000    0    15.999   20.314556    9.977754   17.253200
 104 H     1.0000    0     1.008   19.029542   10.015549   15.987083
 105 H     1.0000    0     1.008   19.275207    9.032891   18.519316
 106 O     8.0000    0    15.999   14.361919   14.872145   19.596460
 107 H     1.0000    0     1.008   16.100467   15.136706   19.464179
 108 H     1.0000    0     1.008   14.002871   13.001316   19.218515
 109 O     8.0000    0    15.999   16.365028   28.156919   17.857912
 110 H     1.0000    0     1.008   14.702069   28.402584   17.177611
 111 H     1.0000    0     1.008   17.253200   27.476618   16.421720
 112 O     8.0000    0    15.999   26.002632   21.127138   14.267432
 113 H     1.0000    0     1.008   25.889248   22.922378   14.683172
 114 H     1.0000    0     1.008   27.571104   21.051549   13.341467
 115 O     8.0000    0    15.999   19.615357   13.190288   23.999522
 116 H     1.0000    0     1.008   18.708289   14.626480   24.698721
 117 H     1.0000    0     1.008   20.730296   13.946179   22.733405
 118 Q     0.6645    0     0.000   22.336563    3.968425   27.949050
 119 Q     0.6645    0     0.000   21.580672    6.803014   27.514413
 120 Q    -1.3290    0     0.000   22.317666    5.555795   28.270303
 121 Q     0.6645    0     0.000   25.190049   38.418132   14.343021
 122 Q     0.6645    0     0.000   26.059323   40.988160   15.401268
 123 Q    -1.3290    0     0.000   25.794762   39.911016   14.210741
 124 Q     0.6645    0     0.000   19.388590   16.724076    5.158952
 125 Q     0.6645    0     0.000   19.842124   14.097357    3.911733
 126 Q    -1.3290    0     0.000   19.180720   15.136706    5.026672
 127 Q     0.6645    0     0.000   18.632700    1.776343   13.114699
 128 Q     0.6645    0     0.000   18.897261   -1.114938   12.812343
 129 Q    -1.3290    0     0.000   18.235857    0.321253   12.509987
 130 Q     0.6645    0     0.000    8.031336   12.150939   15.873700
 131 Q     0.6645    0     0.000    6.689631    9.769884   14.739864
 132 Q    -1.3290    0     0.000    7.691185   11.036001   14.739864
 133 Q     0.6645    0     0.000   24.660926   17.461069   31.180481
 134 Q     0.6645    0     0.000   25.530200   17.650042   34.166249
 135 Q    -1.3290    0     0.000   24.585337   17.234302   32.843440
 136 Q     0.6645    0     0.000    4.667624   19.180720   27.646693
 137 Q     0.6645    0     0.000    5.555795   17.536659   25.360125
 138 Q    -1.3290    0     0.000    5.310130   17.857912   26.909700
 139 Q     0.6645    0     0.000   16.232747   33.315872   23.451501
 140 Q     0.6645    0     0.000   15.306782   34.789858   25.870351
 141 Q    -1.3290    0     0.000   15.817008   33.467050   25.057769
 142 Q     0.6645    0     0.000   33.183591   24.490851   13.265877
 143 Q     0.6645    0     0.000   30.821433   24.490851   11.659610
 144 Q    -1.3290    0     0.000   31.917474   25.152255   12.604473
 145 Q     0.6645    0     0.000   38.966153   24.226289   22.109796
 146 Q     0.6645    0     0.000   41.649564   23.016864   21.580672
 147 Q    -1.3290    0     0.000   40.005502   23.149145   21.505083
 148 Q     0.6645    0     0.000   10.695850   23.357015   29.215166
 149 Q     0.6645    0     0.000    8.106925   21.939720   30.046646
 150 Q    -1.3290    0     0.000    9.032891   23.243631   29.574214
 151 Q     0.6645    0     0.000   30.367899   25.454611   26.682933
 152 Q     0.6645    0     0.000   29.630906   22.922378   27.590002
 153 Q    -1.3290    0     0.000   29.536419   24.112905   26.664036
 154 Q     0.6645    0     0.000   34.015070   15.250090   17.631145
 155 Q     0.6645    0     0.000   34.657577   18.027987   17.555556
 156 Q    -1.3290    0     0.000   33.826098   16.742974   17.234302
 157 Q     0.6645    0     0.000   14.531994    3.042459   20.598015
 158 Q     0.6645    0     0.000   11.772994    3.514891   21.505083
 159 Q    -1.3290    0     0.000   13.322569    3.061356   21.656261
 160 Q     0.6645    0     0.000   28.610454   21.486186    8.995096
 161 Q     0.6645    0     0.000   27.212056   23.999522    8.390384
 162 Q    -1.3290    0     0.000   28.326995   23.016864    9.070685
 163 Q     0.6645    0     0.000   32.200933    6.084918   13.001316
 164 Q     0.6645    0     0.000   33.296974    5.536898   10.223418
 165 Q    -1.3290    0     0.000   32.578879    6.406172   11.432843
 166 Q     0.6645    0     0.000   14.834350   40.364550   12.509987
 167 Q     0.6645    0     0.000   12.717857   38.588208   12.698960
 168 Q    -1.3290    0     0.000   13.322569   39.929913   12.339912
 169 Q     0.6645    0     0.000   24.736515    8.220309   13.624925
 170 Q     0.6645    0     0.000   22.449946    8.069131   15.174501
 171 Q    -1.3290    0     0.000   23.338118    7.672288   14.002871
 172 Q     0.6645    0     0.000    4.157397   24.207392   23.451501
 173 Q     0.6645    0     0.000    5.347925   24.094008   20.938166
 174 Q    -1.3290    0     0.000    4.138500   24.245186   21.901926
 175 Q     0.6645    0     0.000   35.262290    8.465973   11.924172
 176 Q     0.6645    0     0.000   35.772516    9.977754   14.286330
 177 Q    -1.3290    0     0.000   36.150461    9.467528   12.831240
 178 Q     0.6645    0     0.000   37.397680   12.869035   22.487741
 179 Q     0.6645    0     0.000   37.170913   11.376151   25.152255
 180 Q    -1.3290    0     0.000   37.473269   12.642268   24.094008
 181 Q     0.6645    0     0.000   16.818563   32.597776   37.454372
 182 Q     0.6645    0     0.000   14.456405   32.030858   35.999283
 183 Q    -1.3290    0     0.000   15.533549   31.841885   37.189810
 184 Q     0.6645    0     0.000   33.561536   20.068892    2.192082
 185 Q     0.6645    0     0.000   31.766296   19.294104    4.440856
 186 Q    -1.3290    0     0.000   32.919029   20.201172    3.647171
 187 Q     0.6645    0     0.000   24.112905   38.418132   34.525296
 188 Q     0.6645    0     0.000   21.618467   39.948810   34.128454
 189 Q    -1.3290    0     0.000   22.865686   39.041742   33.712714
 190 Q     0.6645    0     0.000   13.265877   36.547303   29.536419
 191 Q     0.6645    0     0.000   10.450186   35.583543   28.875015
 192 Q    -1.3290    0     0.000   11.961966   36.188255   28.610454
 193 Q     0.6645    0     0.000   11.451740   11.961966   35.659132
 194 Q     0.6645    0     0.000   12.396603   14.475302   35.073317
 195 Q    -1.3290    0     0.000   12.207631   13.228083   35.999283
 196 Q     0.6645    0     0.000    4.932185   28.232508   31.785194
 197 Q     0.6645    0     0.000    3.307021   30.651358   32.106447
 198 Q    -1.3290    0     0.000    3.741658   29.252961   31.445043
 199 Q     0.6645    0     0.000   20.730296   22.922378   37.737831
 200 Q     0.6645    0     0.000   23.092453   24.415262   36.660687
 201 Q    -1.3290    0     0.000   22.279871   23.300323   37.529961
 202 Q     0.6645    0     0.000   34.941036   35.205598   23.092453
 203 Q     0.6645    0     0.000   36.906351   37.152016   24.112905
 204 Q    -1.3290    0     0.000   35.961488   35.829207   24.169597
 205 Q     0.6645    0     0.000   24.226289   18.065782    3.930630
 206 Q     0.6645    0     0.000   26.361680   16.686282    2.532233
 207 Q    -1.3290    0     0.000   25.435714   16.969741    3.779452
 208 Q     0.6645    0     0.000   17.857912   37.662242   29.857673
 209 Q     0.6645    0     0.000   17.253200   35.262290   31.501735
 210 Q    -1.3290    0     0.000   17.158713   36.811865   31.048200
 211 Q     0.6645    0     0.000   28.686043   29.857673    7.842363
 212 Q     0.6645    0     0.000   26.191604   28.364789    7.540007
 213 Q    -1.3290    0     0.000   27.419926   29.271858    7.048678
 214 Q     0.6645    0     0.000   15.968186    8.409281    4.648726
 215 Q     0.6645    0     0.000   14.380816   10.639158    3.703863
 216 Q    -1.3290    0     0.000   14.985528    9.184069    3.609377
 217 Q     0.6645    0     0.000    9.278555   26.588447   22.979070
 218 Q     0.6645    0     0.000   10.110035   28.402584   25.133358
 219 Q    -1.3290    0     0.000    9.240761   27.930152   23.810549
 220 Q     0.6645    0     0.000   37.246502   21.675159   19.407487
 221 Q     0.6645    0     0.000   34.676475   22.242077   18.387035
 222 Q    -1.3290    0     0.000   35.753618   21.316111   19.067337
 223 Q     0.6645    0     0.000   22.582227   10.336802   34.090659
 224 Q     0.6645    0     0.000   22.752303   12.509987   32.276522
 225 Q    -1.3290    0     0.000   23.338118   11.395049   33.296974
 226 Q     0.6645    0     0.000    6.387274   28.308097   16.213850
[...]
 326   Q   :   -0.231215449    0.021816920   -0.126364923
 327   Q   :    0.114438186    0.202083114    0.090694839
 328   Q   :    0.115504835   -0.218279170    0.035663883
 329   Q   :   -0.017092913   -0.119108278   -0.252146945
 330   Q   :   -0.002347456   -0.142371259    0.260038279
 331   Q   :    0.017014404    0.260487923    0.003311234
 332   Q   :    0.248932669    0.088217153    0.010501307
 333   Q   :   -0.111038817   -0.264177236    0.059483217
 334   Q   :   -0.136847591    0.173511941   -0.058326282
 335   Q   :   -0.082162685    0.242579509    0.054978332
 336   Q   :    0.248447500   -0.013774204   -0.224169439
 337   Q   :   -0.155443988   -0.223018991    0.166155932
 338   Q   :   -0.143931930    0.226931945    0.003722795
 339   Q   :   -0.091652343   -0.276075725    0.133739937
 340   Q   :    0.245823831    0.042261073   -0.143170099
 341   Q   :    0.084406459    0.248017745    0.078396230
 342   Q   :    0.120504397   -0.242599193    0.056101980
 343   Q   :   -0.203040594   -0.022139954   -0.133392886
 344   Q   :   -0.229628911   -0.084262623   -0.162181717
 345   Q   :    0.189973839   -0.134784700    0.103384465
 346   Q   :    0.033064202    0.212485303    0.052442790
 347   Q   :   -0.032836608    0.268414831   -0.007682722
 348   Q   :   -0.154214147   -0.203770770   -0.124796686
 349   Q   :    0.183054506   -0.065955375    0.131345953
 350   Q   :   -0.099897392    0.229991134   -0.119690861
 351   Q   :   -0.055105305   -0.057503880    0.270341911
 352   Q   :    0.162706755   -0.161409575   -0.144998731
 353   Q   :   -0.041072920    0.115270370   -0.260474986
 354   Q   :    0.247084374   -0.135280126    0.055419394
 355   Q   :   -0.205081434    0.025325490    0.200819596
 356   Q   :   -0.119678561   -0.158878497    0.176351671
 357   Q   :   -0.084698895    0.045275449   -0.295378872
 358   Q   :    0.194041661    0.114720626    0.118497347
 359   Q   :    0.049442190    0.035898825   -0.297179101
 360   Q   :    0.077935868    0.167777650    0.158952401
 361   Q   :   -0.125959777   -0.217430367    0.124111040
 362   Q   :   -0.229742945    0.081000767   -0.181097755
 363   Q   :    0.105081706    0.172785109    0.213124438
 364   Q   :    0.125973719   -0.258909239   -0.039031111
 365   Q   :    0.100797601    0.233597869    0.073401401
 366   Q   :   -0.180372979   -0.032334817   -0.160082295
 367   Q   :    0.077429364   -0.201011880    0.095741133
 368   Q   :   -0.035291969    0.289372911   -0.042590753
 369   Q   :    0.132665480   -0.195016281   -0.189763810
 370   Q   :   -0.096013399   -0.092474976    0.220657465
 371   Q   :    0.290417036    0.047623227    0.047307447
 372   Q   :   -0.201666868    0.168704670   -0.144895339
 373   Q   :   -0.086544761   -0.218980127    0.109243943
 374   Q   :   -0.124617625    0.250912750   -0.007884001
 375   Q   :   -0.023915382   -0.183793023   -0.193378086
 376   Q   :    0.141633380   -0.061359612    0.205788898
 377   Q   :   -0.123015071    0.249800515   -0.056589180
 378   Q   :    0.077933424   -0.184083390   -0.177168042
 379   Q   :    0.035693382   -0.068320694    0.238280576
 380   Q   :    0.156451610   -0.102905169   -0.230694215
 381   Q   :    0.064518613    0.270988776    0.129410202
 382   Q   :   -0.224155126   -0.168607672    0.091296159
 383   Q   :    0.284555489    0.027371813    0.058710059
 384   Q   :   -0.214429473    0.126144046    0.147346216
 385   Q   :   -0.081961572   -0.152861928   -0.202783479
 386   Q   :    0.064806167   -0.235947170    0.123654058
 387   Q   :    0.136297983    0.252728077    0.033668948
 388   Q   :   -0.187790725   -0.009178861   -0.161284804
 389   Q   :   -0.196792866   -0.118179546   -0.165111934
 390   Q   :    0.019223232    0.243063844    0.125364462
 391   Q   :    0.174706716   -0.128809402    0.051041307
 392   Q   :   -0.173668505    0.157792004   -0.189611609
 393   Q   :    0.030442892    0.115550569    0.271616774
 394   Q   :    0.150633540   -0.277984863   -0.076367798
 395   Q   :    0.059249920   -0.089810321    0.243391751
 396   Q   :   -0.222610404   -0.045777571   -0.157578321
 397   Q   :    0.169224973    0.130452824   -0.080096005
 398   Q   :    0.182566791   -0.197249472   -0.064983424
 399   Q   :    0.014777083    0.179191671    0.182231464
 400   Q   :   -0.197400811    0.021146179   -0.114644563
 401   Q   :   -0.077334365    0.037452553    0.244633844
 402   Q   :   -0.025755342    0.152066088   -0.217581791
 403   Q   :    0.109018033   -0.179659867   -0.009222311
 404   Q   :   -0.191991920   -0.092822337    0.192564087
 405   Q   :    0.096195258   -0.123275855   -0.206856518
 406   Q   :    0.096562359    0.215976989    0.028481828
 407   Q   :    0.242816694   -0.161560744    0.030069132
 408   Q   :   -0.249429744   -0.082572387   -0.072952171
 409   Q   :    0.008032426    0.243641673    0.032210534
 410   Q   :   -0.263821086   -0.024040272   -0.077876463
 411   Q   :    0.164248474    0.210500393   -0.028123047
 412   Q   :    0.091010330   -0.181805661    0.102875000
 413   Q   :    0.031694847    0.121378182    0.274895815
 414   Q   :   -0.245949072    0.029408502   -0.144039371
 415   Q   :    0.210052362   -0.144805572   -0.129202410
 416   Q   :   -0.140496914   -0.172749231   -0.161986564
 417   Q   :    0.263838081    0.129511638   -0.051420926
 418   Q   :   -0.113611869    0.042827622    0.214456908
 419   Q   :   -0.278720382   -0.094534613   -0.057964264
 420   Q   :    0.206492195   -0.226669693    0.066975586
 421   Q   :    0.081977188    0.319660013    0.000325764
 422   Q   :   -0.236592900   -0.133838345   -0.001812794
 423   Q   :    0.262986693   -0.115880034    0.052576947
 424   Q   :   -0.035657076    0.247478554   -0.043774890
 425   Q   :   -0.209748061   -0.050241735    0.223006886
 426   Q   :    0.183721452   -0.173549464   -0.072592390
 427   Q   :    0.032930105    0.241467947   -0.150390009
 428   Q   :    0.031658314   -0.095197012    0.221535954
 429   Q   :    0.171649832    0.138552504   -0.147833363
 430   Q   :   -0.213951843   -0.043992373   -0.085714476
 431   Q   :    0.149122596   -0.068895537    0.197591102
 432   Q   :   -0.097962249    0.317018309   -0.059467773
 433   Q   :   -0.057707723   -0.244452287   -0.144360357
 434   Q   :    0.241772195   -0.053283656   -0.040575293
 435   Q   :   -0.212783096   -0.001901683   -0.168802317
 436   Q   :   -0.049198026    0.057537159    0.190270689
 437   Q   :   -0.248795450   -0.110884539   -0.036310215
 438   Q   :    0.164217119    0.137266827   -0.181709464
 439   Q   :    0.086056972   -0.015877224    0.212485285
 440   Q   :   -0.050076226    0.168809276   -0.191677480
 441   Q   :    0.196596077    0.003776033    0.195425579
 442   Q   :   -0.140326415   -0.167862979    0.000590999
 443   Q   :   -0.030297738    0.221003285    0.130625572
 444   Q   :    0.038338430   -0.047652413   -0.251582449
 445   Q   :   -0.016911119   -0.179792810    0.121950194
 446   Q   :   -0.147018975   -0.136369275    0.152963127
 447   Q   :   -0.047632873    0.218107325   -0.115299808
 448   Q   :    0.185233830   -0.072999780   -0.053429724
 449   Q   :    0.287795399    0.029928416   -0.112968269
 450   Q   :   -0.166917414   -0.251000720   -0.014676649
 451   Q   :   -0.125872486    0.219497295    0.126054518
 452   Q   :    0.224209508    0.169226231    0.000219937
 453   Q   :    0.004746376   -0.250036617    0.012704369
 454   Q   :   -0.224626244    0.086584183   -0.012854106
 455   Q   :   -0.304494083   -0.033149143   -0.003386824
 456   Q   :    0.163614105   -0.158108919    0.208908511
 457   Q   :    0.141968401    0.189551874   -0.204862833
 458   Q   :   -0.060303689   -0.177065689    0.221628390
 459   Q   :    0.022367282    0.262163953    0.024132332
 460   Q   :    0.038769822   -0.079637124   -0.239264687
 461   Q   :   -0.237733697    0.120624050   -0.182166072
 462   Q   :    0.011130465    0.005609354    0.307551663
 463   Q   :    0.207663281   -0.123119424   -0.125489662
 464   Q   :   -0.241572244    0.140503772   -0.157526255
 465   Q   :   -0.039243394   -0.169303729    0.208914173
 466   Q   :    0.274558460    0.035023736   -0.059147723
 467   Q   :    0.125784460   -0.042582774    0.234655844
 468   Q   :    0.053864496   -0.099704585   -0.261206312
 469   Q   :   -0.166877112    0.138112810    0.020516889
 470   Q   :    0.052703689   -0.229989354    0.209223591
 471   Q   :   -0.089769170   -0.089968051   -0.276603849
 472   Q   :    0.041683905    0.321713523    0.077979591
 473   Q   :    0.200499128   -0.223871637    0.023919211
 474   Q   :   -0.269542169   -0.047593841   -0.079665341
 475   Q   :    0.059790827    0.269395707    0.045352671
 476   Q   :   -0.148322125   -0.010809386    0.246643451
 477   Q   :   -0.001576143    0.175352412   -0.200888852
 478   Q   :    0.153087971   -0.158662045   -0.027403612
 479   Q   :   -0.136654543    0.036377427    0.242952643
 480   Q   :   -0.039213941   -0.206785935   -0.172785929
 481   Q   :    0.171227854    0.171350123   -0.060644294
 482   Q   :    0.308842087    0.040748415   -0.042019310
 483   Q   :   -0.174979989    0.193494732    0.068201551
 484   Q   :   -0.136697944   -0.234999694   -0.027501949
 485   Q   :    0.130447370    0.163296642    0.124976049
 486   Q   :   -0.049424917   -0.241700092    0.049903131
 487   Q   :   -0.089068553    0.072573307   -0.166748664
 488   Q   :   -0.008256883   -0.041141026    0.243280733
 489   Q   :   -0.059452350    0.228580943   -0.132863026
 490   Q   :    0.059944717   -0.177529158   -0.111735989
 491   Q   :    0.065249086   -0.113265592    0.212536049
 492   Q   :   -0.232898046    0.154465863   -0.048584129
 493   Q   :    0.168008340   -0.040714935   -0.171831527
 494   Q   :    0.178771289    0.238432026   -0.047436552
 495   Q   :    0.115318992   -0.234421733    0.128615210
 496   Q   :   -0.294286036    0.006852571   -0.074821667
 497   Q   :    0.005078991   -0.267822634   -0.118593231
 498   Q   :   -0.015625846    0.016009549    0.251622085
 499   Q   :    0.021345969    0.241495083   -0.141171282
 500   Q   :    0.109197324    0.259517729   -0.003852173
 501   Q   :   -0.100293250   -0.092955882   -0.270345976
 502   Q   :   -0.013988985   -0.172821718    0.271445625
 503   Q   :   -0.229640749    0.076845345    0.040079391
 504   Q   :    0.237828021    0.009285234    0.145167210
 505   Q   :    0.004283478   -0.087523682   -0.178168949
 506   Q   :   -0.146321810    0.015578954    0.270042512
 507   Q   :   -0.142151632   -0.093418914   -0.240052505
 508   Q   :    0.286764422    0.086106667   -0.025060657
 509   Q   :   -0.186942695   -0.197645325    0.000459332
 510   Q   :    0.112145193    0.124732102   -0.215822020
 511   Q   :    0.078542457    0.066696438    0.222508458
 512   Q   :   -0.128307431   -0.187369263   -0.198780266
 513   Q   :    0.086167944    0.252405581   -0.057386330
 514   Q   :    0.032801161   -0.062137374    0.256421501
 515   Q   :   -0.235240384   -0.087728028   -0.163626923
 516   Q   :    0.092103500   -0.119736997    0.235113365
 517   Q   :    0.143448874    0.217788689   -0.072166674
 518   Q   :    0.245112330    0.158092589   -0.032842398
 519   Q   :   -0.236964932    0.077502512    0.037279494
 520   Q   :   -0.008010465   -0.241464712   -0.009138274
 521   Q   :   -0.150403731    0.167743623    0.169434600
 522   Q   :   -0.043420447   -0.305400446    0.001213352
 523   Q   :    0.196323773    0.128178635   -0.170072810
 524   Q   :    0.205799887   -0.193149596   -0.076986028
 525   Q   :    0.048351111    0.292018717   -0.049047878
 526   Q   :   -0.252117920   -0.094011939    0.122025853
 527   Q   :    0.275197010   -0.035583411    0.023617809
 528   Q   :   -0.148850613    0.185006750   -0.168158169
 529   Q   :   -0.128221930   -0.149527001    0.144835721
 530   Q   :   -0.172375739    0.141313952   -0.133864729
 531   Q   :    0.127431163    0.084098163    0.232193759
 532   Q   :    0.045631326   -0.242409190   -0.098273881
 533   Q   :   -0.000413756    0.148961079    0.221925142
 534   Q   :   -0.009162000   -0.267023564   -0.004163448
 535   Q   :    0.003301073    0.128328757   -0.218274789
 536   Q   :   -0.151015326    0.051321132   -0.190853517
 537   Q   :    0.129955878    0.164615442    0.146355402
 538   Q   :    0.027117025   -0.206570512    0.040467592
 539   Q   :    0.219677335   -0.118943740    0.051440665
 540   Q   :   -0.236651034   -0.112996961   -0.107132072
 541   Q   :    0.020611256    0.216421443    0.055412306
 542   Q   :   -0.259895258   -0.015508046    0.161111899
 543   Q   :   -0.013143033    0.038291551   -0.299305818
 544   Q   :    0.265397827   -0.030591436    0.134290580
 545   Q   :    0.147565604    0.055225942    0.186768310
 546   Q   :   -0.285474524    0.066535593   -0.021275240
 547   Q   :    0.125996505   -0.124688602   -0.169277685
 548   Q   :   -0.265500131   -0.132091479    0.089493275
 549   Q   :    0.158940121    0.177175631    0.172309153
 550   Q   :    0.114382931   -0.046759928   -0.262310082
 551   Q   :    0.080706962    0.124206171   -0.254365469
 552   Q   :    0.085839651    0.098557501    0.261321665
 553   Q   :   -0.166849225   -0.228463334   -0.015380516
 554   Q   :   -0.153872931   -0.064326524    0.160818399
 555   Q   :   -0.029366929    0.054039694   -0.245127102
 556   Q   :    0.174657769    0.005251137    0.085376514
 557   Q   :    0.051276958    0.141948447    0.271850254
 558   Q   :   -0.065131286    0.143019168   -0.233525222
 559   Q   :    0.015648945   -0.290308037   -0.036202441
 560   Q   :   -0.054201405   -0.017861558   -0.243593292
 561   Q   :    0.206322519    0.142023696    0.111754904
 562   Q   :   -0.147167735   -0.121198504    0.131820188
 563   Q   :   -0.089200167   -0.237784705    0.069144268
 564   Q   :    0.028468295    0.079117855   -0.267129439
 565   Q   :    0.043777061    0.168752474    0.193908096
 566   Q   :    0.032723805   -0.159892084   -0.207859161
 567   Q   :    0.044569039    0.262633753    0.045035628
 568   Q   :   -0.071024743   -0.107788266    0.156526093
 569   Q   :    0.055659684   -0.099150626   -0.245716977
 570   Q   :   -0.223762933    0.033034389    0.133557526
 571   Q   :    0.156775436    0.060810416    0.101904898
 572   Q   :    0.217062454   -0.145370576   -0.125477268
 573   Q   :   -0.169355109   -0.110424843    0.195128938
 574   Q   :   -0.055057269    0.248883173   -0.075036105
 575   Q   :   -0.069126054   -0.119249446   -0.261495483
 576   Q   :    0.208939066    0.242977006    0.013880836
 577   Q   :   -0.140279022   -0.119536179    0.250476344
 578   Q   :    0.009759279   -0.055783532   -0.297969308
 579   Q   :   -0.082386877    0.227728343    0.129220619
 580   Q   :    0.069298374   -0.163187396    0.158822218
 581   Q   :   -0.097197694   -0.267262105   -0.007588112
 582   Q   :    0.146343135    0.127443912    0.193461794
 583   Q   :   -0.047407885    0.138990312   -0.176395340
 584   Q   :    0.216604569   -0.140161241    0.016404549
 585   Q   :   -0.185905792    0.020302323    0.199608990
 586   Q   :   -0.036027047    0.129746320   -0.223972725
 587   Q   :   -0.133320400    0.050325315    0.244135442
 588   Q   :   -0.027902220   -0.252598801   -0.145853267
 589   Q   :    0.140736900    0.210196720   -0.102928542
 590   Q   :    0.289473527   -0.033952319   -0.027967460
 591   Q   :   -0.203766551   -0.140573994    0.201880783
 592   Q   :   -0.077973646    0.184017723   -0.167306152
 593   Q   :   -0.289829395   -0.021123874    0.091058441
 594   Q   :    0.142717670    0.258406217   -0.016756420
 595   Q   :    0.145406104   -0.229339094   -0.085470711
 596   Q   :   -0.026882001    0.278102162   -0.102613670
 597   Q   :    0.011190696   -0.205862864   -0.152901267
 598   Q   :    0.028866355   -0.059946515    0.254816861
 599   Q   :   -0.139129347   -0.007895208    0.238200529
 600   Q   :    0.029760261   -0.220605576   -0.185301021
 601   Q   :    0.110588325    0.239190511   -0.047062822
 602   Q   :    0.228815121   -0.144382243    0.054002015
 603   Q   :   -0.227588245   -0.104510182   -0.125674093
 604   Q   :   -0.000312388    0.251288940    0.076641416
 605   Q   :   -0.122973944    0.071012662    0.208733328
 606   Q   :    0.245715934   -0.139290625    0.001549366
 607   Q   :   -0.120256563    0.059912887   -0.219333350
 608   Q   :    0.099553414   -0.296089969    0.038477053
 609   Q   :   -0.235883088    0.060387616   -0.082682703
 610   Q   :    0.149443549    0.240932125    0.051758655
 611   Q   :    0.161913998   -0.012082888    0.178351512
 612   Q   :    0.013515844   -0.075715702   -0.214938700
 613   Q   :   -0.172215668    0.069628086    0.047384232
 614   Q   :    0.208876973    0.068882856   -0.176654755
 615   Q   :   -0.128710304    0.188261156    0.226387102
 616   Q   :   -0.076323412   -0.256731701   -0.048253930

Difference to translation invariance:
           :   -0.0003911732   -0.0003779260    0.0000708701

Difference to rotation invariance:
           :    0.0122656368   -0.0079946354   -0.0018221365

Norm of the cartesian gradient     ...    6.1348771880
RMS gradient                       ...    0.1427101589
MAX gradient                       ...    0.3311646517

-------
TIMINGS
-------

Total SCF gradient time            ...      256.942 sec

One electron gradient       ....      30.802 sec  ( 12.0%)
RI-J Coulomb gradient       ....      13.740 sec  (  5.3%)
COSX gradient               ....     162.642 sec  ( 63.3%)
XC gradient                 ....      19.758 sec  (  7.7%)

Maximum memory used throughout the entire SCFGRAD-calculation: 968.6 MB

                            ***************************************
                            *     ORCA property calculations      *
                            ***************************************

                                    ---------------------
                                    Active property flags
                                    ---------------------
   (+) Dipole Moment


------------------------------------------------------------------------------
                       ORCA ELECTRIC PROPERTIES CALCULATION
------------------------------------------------------------------------------

Dipole Moment Calculation                       ... on
Quadrupole Moment Calculation                   ... off
Polarizability Calculation                      ... off
GBWName                                         ... final026.orca.gbw
Electron density                                ... final026.orca.scfp
The origin for moment calculation is the CENTER OF MASS  = (21.069638, 22.239690 21.078215)

-------------
DIPOLE MOMENT
-------------
                                X             Y             Z
Electronic contribution:     -0.96445      -0.92640       0.54555
Nuclear contribution   :      3.36248       0.75372      -3.62723
                        -----------------------------------------
Total Dipole Moment    :      2.39802      -0.17268      -3.08168
                        -----------------------------------------
Magnitude (a.u.)       :      3.90859
Magnitude (Debye)      :      9.93485



--------------------
Rotational spectrum 
--------------------
 
Rotational constants in cm-1:     0.001733     0.001239     0.000927 
Rotational constants in MHz :    51.941648    37.143097    27.781019 

 Dipole components along the rotational axes: 
x,y,z [a.u.] :    -2.597095     2.889405    -0.428391 
x,y,z [Debye]:    -6.601292     7.344284    -1.088884 

 

Timings for individual modules:

Sum of individual times         ...     1093.186 sec (=  18.220 min)
GTO integral calculation        ...       15.028 sec (=   0.250 min)   1.4 %
SCF iterations                  ...      816.612 sec (=  13.610 min)  74.7 %
SCF Gradient evaluation         ...      261.546 sec (=   4.359 min)  23.9 %
                             ****ORCA TERMINATED NORMALLY****
TOTAL RUN TIME: 0 days 0 hours 18 minutes 21 seconds 847 msec
