
                                 *****************
                                 * O   R   C   A *
                                 *****************

                                            #,                                       
                                            ###                                      
                                            ####                                     
                                            #####                                    
                                            ######                                   
                                           ########,                                 
                                     ,,################,,,,,                         
                               ,,#################################,,                 
                          ,,##########################################,,             
                       ,#########################################, ''#####,          
                    ,#############################################,,   '####,        
                  ,##################################################,,,,####,       
                ,###########''''           ''''###############################       
              ,#####''   ,,,,##########,,,,          '''####'''          '####       
            ,##' ,,,,###########################,,,                        '##       
           ' ,,###''''                  '''############,,,                           
         ,,##''                                '''############,,,,        ,,,,,,###''
      ,#''                                            '''#######################'''  
     '                                                          ''''####''''         
             ,#######,   #######,   ,#######,      ##                                
            ,#'     '#,  ##    ##  ,#'     '#,    #''#        ######   ,####,        
            ##       ##  ##   ,#'  ##            #'  '#       #        #'  '#        
            ##       ##  #######   ##           ,######,      #####,   #    #        
            '#,     ,#'  ##    ##  '#,     ,#' ,#      #,         ##   #,  ,#        
             '#######'   ##     ##  '#######'  #'      '#     #####' # '####'        



                  #######################################################
                  #                        -***-                        #
                  #          Department of theory and spectroscopy      #
                  #    Directorship and core code : Frank Neese         #
                  #        Max Planck Institute fuer Kohlenforschung    #
                  #                Kaiser Wilhelm Platz 1               #
                  #                 D-45470 Muelheim/Ruhr               #
                  #                      Germany                        #
                  #                                                     #
                  #                  All rights reserved                #
                  #                        -***-                        #
                  #######################################################


                         Program Version 5.0.3 -  RELEASE  -


 With contributions from (in alphabetic order):
   Daniel Aravena         : Magnetic Suceptibility
   Michael Atanasov       : Ab Initio Ligand Field Theory (pilot matlab implementation)
   Alexander A. Auer      : GIAO ZORA, VPT2 properties, NMR spectrum
   Ute Becker             : Parallelization
   Giovanni Bistoni       : ED, misc. LED, open-shell LED, HFLD
   Martin Brehm           : Molecular dynamics
   Dmytro Bykov           : SCF Hessian
   Vijay G. Chilkuri      : MRCI spin determinant printing, contributions to CSF-ICE
   Dipayan Datta          : RHF DLPNO-CCSD density
   Achintya Kumar Dutta   : EOM-CC, STEOM-CC
   Dmitry Ganyushin       : Spin-Orbit,Spin-Spin,Magnetic field MRCI
   Miquel Garcia          : C-PCM and meta-GGA Hessian, CC/C-PCM, Gaussian charge scheme
   Yang Guo               : DLPNO-NEVPT2, F12-NEVPT2, CIM, IAO-localization
   Andreas Hansen         : Spin unrestricted coupled pair/coupled cluster methods
   Benjamin Helmich-Paris : MC-RPA, TRAH-SCF, COSX integrals
   Lee Huntington         : MR-EOM, pCC
   Robert Izsak           : Overlap fitted RIJCOSX, COSX-SCS-MP3, EOM
   Marcus Kettner         : VPT2
   Christian Kollmar      : KDIIS, OOCD, Brueckner-CCSD(T), CCSD density, CASPT2, CASPT2-K
   Simone Kossmann        : Meta GGA functionals, TD-DFT gradient, OOMP2, MP2 Hessian
   Martin Krupicka        : Initial AUTO-CI
   Lucas Lang             : DCDCAS
   Marvin Lechner         : AUTO-CI (C++ implementation), FIC-MRCC
   Dagmar Lenk            : GEPOL surface, SMD
   Dimitrios Liakos       : Extrapolation schemes; Compound Job, initial MDCI parallelization
   Dimitrios Manganas     : Further ROCIS development; embedding schemes
   Dimitrios Pantazis     : SARC Basis sets
   Anastasios Papadopoulos: AUTO-CI, single reference methods and gradients
   Taras Petrenko         : DFT Hessian,TD-DFT gradient, ASA, ECA, R-Raman, ABS, FL, XAS/XES, NRVS
   Peter Pinski           : DLPNO-MP2, DLPNO-MP2 Gradient
   Christoph Reimann      : Effective Core Potentials
   Marius Retegan         : Local ZFS, SOC
   Christoph Riplinger    : Optimizer, TS searches, QM/MM, DLPNO-CCSD(T), (RO)-DLPNO pert. Triples
   Tobias Risthaus        : Range-separated hybrids, TD-DFT gradient, RPA, STAB
   Michael Roemelt        : Original ROCIS implementation
   Masaaki Saitow         : Open-shell DLPNO-CCSD energy and density
   Barbara Sandhoefer     : DKH picture change effects
   Avijit Sen             : IP-ROCIS
   Kantharuban Sivalingam : CASSCF convergence, NEVPT2, FIC-MRCI
   Bernardo de Souza      : ESD, SOC TD-DFT
   Georgi Stoychev        : AutoAux, RI-MP2 NMR, DLPNO-MP2 response
   Willem Van den Heuvel  : Paramagnetic NMR
   Boris Wezisla          : Elementary symmetry handling
   Frank Wennmohs         : Technical directorship


 We gratefully acknowledge several colleagues who have allowed us to
 interface, adapt or use parts of their codes:
   Stefan Grimme, W. Hujo, H. Kruse, P. Pracht,  : VdW corrections, initial TS optimization,
                  C. Bannwarth, S. Ehlert          DFT functionals, gCP, sTDA/sTD-DF
   Ed Valeev, F. Pavosevic, A. Kumar             : LibInt (2-el integral package), F12 methods
   Garnet Chan, S. Sharma, J. Yang, R. Olivares  : DMRG
   Ulf Ekstrom                                   : XCFun DFT Library
   Mihaly Kallay                                 : mrcc  (arbitrary order and MRCC methods)
   Jiri Pittner, Ondrej Demel                    : Mk-CCSD
   Frank Weinhold                                : gennbo (NPA and NBO analysis)
   Christopher J. Cramer and Donald G. Truhlar   : smd solvation model
   Lars Goerigk                                  : TD-DFT with DH, B97 family of functionals
   V. Asgeirsson, H. Jonsson                     : NEB implementation
   FAccTs GmbH                                   : IRC, NEB, NEB-TS, DLPNO-Multilevel, CI-OPT
                                                   MM, QMMM, 2- and 3-layer-ONIOM, Crystal-QMMM,
                                                   LR-CPCM, SF, NACMEs, symmetry and pop. for TD-DFT,
                                                   nearIR, NL-DFT gradient (VV10), updates on ESD,
                                                   ML-optimized integration grids
   S Lehtola, MJT Oliveira, MAL Marques          : LibXC Library
   Liviu Ungur et al                             : ANISO software


 Your calculation uses the libint2 library for the computation of 2-el integrals
 For citations please refer to: http://libint.valeyev.net

 Your ORCA version has been built with support for libXC version: 5.1.0
 For citations please refer to: https://tddft.org/programs/libxc/

 This ORCA versions uses:
   CBLAS   interface :  Fast vector & matrix operations
   LAPACKE interface :  Fast linear algebra routines
   SCALAPACK package :  Parallel linear algebra routines
   Shared memory     :  Shared parallel matrices
   BLAS/LAPACK       :  OpenBLAS 0.3.15  USE64BITINT DYNAMIC_ARCH NO_AFFINITY SkylakeX SINGLE_THREADED
        Core in use  :  SkylakeX
   Copyright (c) 2011-2014, The OpenBLAS Project


================================================================================

----- Orbital basis set information -----
Your calculation utilizes the basis: def2-SVP
   F. Weigend and R. Ahlrichs, Phys. Chem. Chem. Phys. 7, 3297 (2005).

The basis set includes element-specific modifications.

Your calculation utilizes the basis: aug-cc-pVTZ 
    H, B-Ne : Obtained from the ccRepo (grant-hill.group.shef.ac.uk/ccrepo) Feb. 2017
              R. A. Kendall, T. H. Dunning, Jr., R. J. Harrison, J. Chem. Phys. 96, 6796 (1992)
         He : Obtained from the ccRepo (grant-hill.group.shef.ac.uk/ccrepo) Feb. 2017
              D. E. Woon, T. H. Dunning, Jr., J. Chem. Phys. 100, 2975 (1994)
  Li-Be, Na : Obtained from the ccRepo (grant-hill.group.shef.ac.uk/ccrepo) Feb. 2017
              B. P. Prascher, D. E. Woon, K. A. Peterson, T. H. Dunning, Jr., A. K. Wilson, Theor. Chem. Acc. 128, 69 (2011)
         Mg : Obtained from the Peterson Research Group Website (tyr0.chem.wsu.edu/~kipeters) Feb. 2017
              B. P. Prascher, D. E. Woon, K. A. Peterson, T. H. Dunning, Jr., A. K. Wilson, Theor. Chem. Acc. 128, 69 (2011)
      Al-Ar : Obtained from the ccRepo (grant-hill.group.shef.ac.uk/ccrepo) Feb. 2017
              D. E. Woon, T. H. Dunning, Jr., J. Chem. Phys. 98, 1358 (1993)
      Sc-Zn : Obtained from the ccRepo (grant-hill.group.shef.ac.uk/ccrepo) Feb. 2017
              N. B. Balabanov, K. A. Peterson, J. Chem. Phys. 123, 064107 (2005)
              N. B. Balabanov, K. A. Peterson, J. Chem. Phys. 125, 074110 (2006)
      Ga-Kr : Obtained from the ccRepo (grant-hill.group.shef.ac.uk/ccrepo) Feb. 2017
              A. K. Wilson, D. E. Woon, K. A. Peterson, T. H. Dunning, Jr., J. Chem. Phys. 110, 7667 (1999)
     Ag, Au : Obtained from the Peterson Research Group Website (tyr0.chem.wsu.edu/~kipeters) Feb. 2017
              K. A. Peterson, C. Puzzarini, Theor. Chem. Acc. 114, 283 (2005)

Your calculation utilizes the basis: cc-pVTZ 
       H, B-Ne : Obtained from the ccRepo (grant-hill.group.shef.ac.uk/ccrepo) Feb. 2017
                 T. H. Dunning, Jr., J. Chem. Phys. 90, 1007 (1989)
            He : Obtained from the ccRepo (grant-hill.group.shef.ac.uk/ccrepo) Feb. 2017
                 D. E. Woon, T. H. Dunning, Jr., J. Chem. Phys. 100, 2975 (1994)
  Li-Be, Na-Mg : Obtained from the ccRepo (grant-hill.group.shef.ac.uk/ccrepo) Feb. 2017
                 B. P. Prascher, D. E. Woon, K. A. Peterson, T. H. Dunning, Jr., A. K. Wilson, Theor. Chem. Acc. 128, 69 (2011)
         Al-Ar : Obtained from the ccRepo (grant-hill.group.shef.ac.uk/ccrepo) Feb. 2017
                 D. E. Woon, T. H. Dunning, Jr., J. Chem. Phys. 98, 1358 (1993)
            Ca : Obtained from the Peterson Research Group Website (tyr0.chem.wsu.edu/~kipeters) Feb. 2017
                 J. Koput, K. A. Peterson, J. Phys. Chem. 106, 9595 (2002)
         Sc-Zn : Obtained from the ccRepo (grant-hill.group.shef.ac.uk/ccrepo) Feb. 2017
                 N. B. Balabanov, K. A. Peterson, J. Chem. Phys. 123, 064107 (2005)
                 N. B. Balabanov, K. A. Peterson, J. Chem. Phys. 125, 074110 (2006)
         Ga-Kr : Obtained from the ccRepo (grant-hill.group.shef.ac.uk/ccrepo) Feb. 2017
                 A. K. Wilson, D. E. Woon, K. A. Peterson, T. H. Dunning, Jr., J. Chem. Phys. 110, 7667 (1999)
             Y : Obtained from the ccRepo (grant-hill.group.shef.ac.uk/ccrepo) Feb. 2017
                 K. A. Peterson, D. Figgen, M. Dolg, H. Stoll, J. Chem. Phys. 126, 124101 (2007)
        Ag, Au : Obtained from the Peterson Research Group Website (tyr0.chem.wsu.edu/~kipeters) Feb. 2017
                 K. A. Peterson, C. Puzzarini, Theor. Chem. Acc. 114, 283 (2005)

----- AuxJ basis set information -----
Your calculation utilizes the auxiliary basis: def2/J
   F. Weigend, Phys. Chem. Chem. Phys. 8, 1057 (2006).

================================================================================
                                        WARNINGS
                       Please study these warnings very carefully!
================================================================================

WARNING: The globally-selected AuxJ basis set is optimized for use with ECPs
         Make sure a suitable alternative is explicitly given all heavy elements (Z>36)

INFO   : the flag for use of the SHARK integral package has been found!

================================================================================
                                       INPUT FILE
================================================================================
NAME = final044.orca.inp
|  1> ! NoMOPrint PrintBasis #MINIPRINT SMALLPRINT LARGEPRINT
|  2> ! ALLPOP XYZFILE
|  3> #! BP86 3-21G   TightSCF
|  4> ! ENGRAD
|  5> ! B3LYP NormalPNO PModel #DecontractAux
|  6> #! VerySlowConv 
|  7>  %maxcore 5000
|  8>  %scf  maxiter   500  end 
|  9> 
| 10> %pal
| 11>     nprocs 32
| 12> end
| 13> 
| 14> %basis
| 15>     NewGTO O    # New basis for oxygen
| 16>         "aug-cc-pVTZ"
| 17>     end
| 18>     NewGTO C    # New basis for carbon
| 19>         "aug-cc-pVTZ"
| 20>     end
| 21>     NewGTO H    # New basis for hydrogen
| 22>         "cc-pVTZ"
| 23>     end
| 24> end
| 25> 
| 26> * xyz 0   1
| 27>   C  10.09  11  11.82  #1
| 28>   H  9.58  10.33  11.08  #2
| 29>   H  9.33  11.77  12.21  #3
| 30>   C  11.33  11.65  11.14  #4
| 31>   H  11.31  12.74  11.39  #5
| 32>   H  12.25  11.24  11.54  #6
| 33>   C  11.22  11.5  9.59  #7
| 34>   H  12.06  12.04  9.11  #8
| 35>   H  10.37  12.04  9.34  #9
| 36>   C  11.15  10.08  9.08  #10
| 37>   H  11.13  9.46  9.97  #11
| 38>   H  11.97  9.87  8.38  #12
| 39>   O  9.93  9.82  8.47  #13
| 40>   H  9.84  8.83  8.46  #14
| 41>   O  10.52  10.19  12.95  #15
| 42>   H  9.75  9.67  13.19  #16
| 43>   O  11.53  13.52  6.55  #17
| 44>   H  11.76  13.5  5.58  #18
| 45>   H  11.26  12.58  6.68  #19
| 46>   O  8.61  14.43  12.11  #20
| 47>   H  8.94  14.11  12.92  #21
| 48>   H  9.11  15.23  11.88  #22
| 49>   O  13.05  8.43  12.08  #23
| 50>   H  13.71  7.81  12.4  #24
| 51>   H  12.58  8.87  12.8  #25
| 52>   O  10.8  15.64  10.66  #26
| 53>   H  11.62  15.46  10.2  #27
| 54>   H  10.89  16.58  10.72  #28
| 55>   O  10.49  6.58  6.06  #29
| 56>   H  10.02  6.8  6.88  #30
| 57>   H  11.1  7.33  5.71  #31
| 58>   O  14.85  6.41  13.02  #32
| 59>   H  15.64  6.81  13.4  #33
| 60>   H  15.04  6.39  12.03  #34
| 61>   O  13.59  13.12  13.13  #35
| 62>   H  12.93  13.74  12.74  #36
| 63>   H  14.17  12.67  12.48  #37
| 64>   O  9.69  7.03  9.01  #38
| 65>   H  8.85  6.56  9.07  #39
| 66>   H  10.31  6.62  9.59  #40
| 67>   O  14.62  11.84  11.04  #41
| 68>   H  14.46  11.04  10.52  #42
| 69>   H  14.23  12.53  10.55  #43
| 70>   O  11.09  6.86  14.84  #44
| 71>   H  10.4  7.41  14.37  #45
| 72>   H  11.83  7.4  14.67  #46
| 73>   O  14.77  9.78  6.83  #47
| 74>   H  14.57  9.1  7.5  #48
| 75>   H  14.2  9.57  6.09  #49
| 76>   O  13.15  9.02  14.78  #50
| 77>   H  12.75  9.51  15.53  #51
| 78>   H  14.03  8.75  15.16  #52
| 79>   O  12.39  8.67  5.66  #53
| 80>   H  11.97  9.53  5.46  #54
| 81>   H  12.57  8.32  4.77  #55
| 82>   O  15.94  9.73  13.2  #56
| 83>   H  16.33  10.54  12.91  #57
| 84>   H  15.01  9.96  12.93  #58
| 85>   O  7.84  11.36  7.98  #59
| 86>   H  8.51  10.78  8.36  #60
| 87>   H  7.63  11.95  8.74  #61
| 88>   O  11.53  12.79  3.62  #62
| 89>   H  11.78  11.87  3.69  #63
| 90>   H  11.17  12.92  2.72  #64
| 91>   O  8.73  6.89  3.95  #65
| 92>   H  9.28  7.02  4.75  #66
| 93>   H  8.08  7.62  4  #67
| 94>   O  10.1  18.36  10.33  #68
| 95>   H  9.26  18.56  9.84  #69
| 96>   H  10.41  19.19  10.71  #70
| 97>   O  8.86  3.89  6.71  #71
| 98>   H  9.35  4.34  6.02  #72
| 99>   H  8.55  3.04  6.35  #73
|100>   O  11.77  15.25  13.38  #74
|101>   H  11.67  15.57  12.48  #75
|102>   H  11.78  15.95  13.99  #76
|103>   O  13.06  5.18  7.17  #77
|104>   H  12.32  5.58  6.71  #78
|105>   H  12.73  4.75  8.01  #79
|106>   O  11.87  6.47  10.85  #80
|107>   H  12.14  7.34  11.29  #81
|108>   H  11.51  5.98  11.59  #82
|109>   O  6.43  15.78  12.71  #83
|110>   H  6.51  16.44  12.03  #84
|111>   H  7.08  15.2  12.34  #85
|112>   O  8.45  13.83  6.84  #86
|113>   H  8.03  13.02  7.08  #87
|114>   H  9.36  13.6  6.54  #88
|115>   O  7.19  13.1  10  #89
|116>   H  7  12.8  10.89  #90
|117>   H  7.95  13.68  10.13  #91
|118>   O  12.8  14.91  8.8  #92
|119>   H  12.56  14.26  8.09  #93
|120>   H  13.74  14.92  9.02  #94
|121>   O  12.96  15.2  3.73  #95
|122>   H  12.52  14.28  3.78  #96
|123>   H  12.84  15.38  2.8  #97
|124>   O  8.75  7.89  13.37  #98
|125>   H  8.26  7.39  12.69  #99
|126>   H  7.89  8.31  13.79  #100
|127>   O  14.83  9.36  9.99  #101
|128>   H  14.08  8.76  10.37  #102
|129>   H  15.64  8.94  10.35  #103
|130>   O  11.79  17.43  8.17  #104
|131>   H  11.09  17.71  8.86  #105
|132>   H  12.07  16.56  8.5  #106
|133>   O  10.54  10.9  5.78  #107
|134>   H  10.18  10.44  6.53  #108
|135>   H  9.86  11.1  5.17  #109
|136>   Q  0.6645  9.34$  5.13$  16.98$
|137>   Q  0.6645  10.8$  4.66$  17.16$
|138>   Q  -1.3290  10$  4.75$  17.38$
|139>   Q  0.6645  2.38$  5.78$  7.17$
|140>   Q  0.6645  1.75$  7.13$  7.51$
|141>   Q  -1.3290  2.24$  6.6$  7.06$
|142>   Q  0.6645  10.94$  3.99$  13.32$
|143>   Q  0.6645  10.72$  5.47$  13.71$
|144>   Q  -1.3290  10.88$  4.84$  13.18$
|145>   Q  0.6645  5.14$  15.61$  5.37$
|146>   Q  0.6645  4.25$  16.32$  6.53$
|147>   Q  -1.3290  4.58$  16.2$  5.74$
|148>   Q  0.6645  5.97$  5.55$  19.81$
|149>   Q  0.6645  6.05$  6.61$  20.8$
|150>   Q  -1.3290  5.65$  6.13$  20.26$
|151>   Q  0.6645  14.68$  2.37$  11.08$
|152>   Q  0.6645  13.83$  3.57$  11.5$
|153>   Q  -1.3290  14.53$  3.16$  11.24$
|154>   Q  0.6645  6.17$  11.06$  13.38$
|155>   Q  0.6645  5.13$  11.44$  14.46$
|156>   Q  -1.3290  5.88$  11.36$  14.12$
|157>   Q  0.6645  20.26$  12.12$  13.84$
|158>   Q  0.6645  20.45$  12.43$  12.34$
|159>   Q  -1.3290  20.55$  12.56$  13.16$
|160>   Q  0.6645  7.07$  18.85$  6.41$
|161>   Q  0.6645  7.11$  19.44$  7.83$
|162>   Q  -1.3290  6.76$  19.04$  7.17$
|163>   Q  0.6645  2.82$  13.35$  12.23$
|164>   Q  0.6645  1.2$  13.63$  12.52$
|165>   Q  -1.3290  1.92$  13.26$  12.16$
|166>   Q  0.6645  18.05$  7.7$  16.77$
|167>   Q  0.6645  19.67$  7.48$  16.64$
|168>   Q  -1.3290  18.89$  7.9$  16.79$
|169>   Q  0.6645  7.53$  19.79$  9.71$
|170>   Q  0.6645  8.92$  20.56$  9.37$
|171>   Q  -1.3290  8.2$  20.03$  9.24$
|172>   Q  0.6645  7.03$  0.78$  10.45$
|173>   Q  0.6645  7.14$  -0.16$  11.73$
|174>   Q  -1.3290  7.19$  0.59$  11.28$
|175>   Q  0.6645  6.23$  17.95$  10.35$
|176>   Q  0.6645  7.16$  17.01$  9.64$
|177>   Q  -1.3290  6.82$  17.38$  10.3$
|178>   Q  0.6645  15.37$  9.59$  0.85$
|179>   Q  0.6645  15.6$  10.55$  -0.39$
|180>   Q  -1.3290  15.23$  10.26$  0.35$
|181>   Q  0.6645  17.63$  17.53$  15.27$
|182>   Q  0.6645  18.83$  18.33$  15$
|183>   Q  -1.3290  18.39$  17.6$  15.06$
|184>   Q  0.6645  8.32$  14.9$  17.32$
|185>   Q  0.6645  7.17$  15.34$  16.49$
|186>   Q  -1.3290  7.52$  14.91$  17.12$
|187>   Q  0.6645  5.43$  7.2$  4.91$
|188>   Q  0.6645  6.02$  7.83$  6.14$
|189>   Q  -1.3290  5.62$  7.23$  5.71$
|190>   Q  0.6645  21.14$  13.67$  9.57$
|191>   Q  0.6645  19.79$  14.08$  10.34$
|192>   Q  -1.3290  20.61$  13.84$  10.23$
|193>   Q  0.6645  15.17$  12.06$  1.11$
|194>   Q  0.6645  14.88$  12.89$  2.34$
|195>   Q  -1.3290  15.06$  12.77$  1.53$
|196>   Q  0.6645  3.62$  6.7$  3.53$
|197>   Q  0.6645  4.99$  6.67$  2.69$
|198>   Q  -1.3290  4.29$  7.03$  3.09$
|199>   Q  0.6645  14.86$  19.23$  14.19$
|200>   Q  0.6645  15.44$  17.93$  13.53$
|201>   Q  -1.3290  15.38$  18.77$  13.7$
|202>   Q  0.6645  3.23$  18.59$  15.84$
|203>   Q  0.6645  4.75$  18.16$  16.04$
|204>   Q  -1.3290  4.05$  18.6$  15.68$
|205>   Q  0.6645  13.09$  6.7$  2.53$
|206>   Q  0.6645  14.22$  7.85$  2.7$
|207>   Q  -1.3290  13.42$  7.47$  2.79$
|208>   Q  0.6645  10.21$  21.92$  6.25$
|209>   Q  0.6645  8.8$  21.98$  5.7$
|210>   Q  -1.3290  9.44$  21.61$  6.12$
|211>   Q  0.6645  14.87$  1.48$  8.29$
|212>   Q  0.6645  15.02$  2.99$  8.36$
|213>   Q  -1.3290  14.99$  2.28$  7.97$
|214>   Q  0.6645  19.48$  8.38$  8.96$
|215>   Q  0.6645  18.71$  8.35$  10.34$
|216>   Q  -1.3290  19.4$  8.39$  9.82$
|217>   Q  0.6645  17.87$  18.66$  11.02$
|218>   Q  0.6645  17.6$  18.67$  12.59$
|219>   Q  -1.3290  18.06$  18.75$  11.88$
|220>   Q  0.6645  18.18$  13.35$  1.52$
|221>   Q  0.6645  16.84$  12.72$  1.9$
|222>   Q  -1.3290  17.67$  12.84$  1.96$
|223>   Q  0.6645  19.55$  9.43$  14.13$
|224>   Q  0.6645  20.09$  8.85$  12.81$
|225>   Q  -1.3290  19.98$  8.88$  13.65$
|226>   Q  0.6645  12.06$  0.38$  9.77$
|227>   Q  0.6645  13.2$  -0.46$  9.04$
|228>   Q  -1.3290  12.75$  0.25$  9.25$
|229>   Q  0.6645  5.7$  12.28$  3.91$
|230>   Q  0.6645  5.89$  12.46$  5.51$
|231>   Q  -1.3290  6.12$  12.39$  4.67$
|232>   Q  0.6645  5.42$  5.14$  5.97$
|233>   Q  0.6645  6.19$  3.89$  5.86$
|234>   Q  -1.3290  5.5$  4.33$  5.95$
|235>   Q  0.6645  18.9$  11.32$  15.43$
|236>   Q  0.6645  18.28$  12.01$  14.16$
|237>   Q  -1.3290  18.76$  11.44$  14.6$
|238>   Q  0.6645  5.71$  16.47$  16.96$
|239>   Q  0.6645  6.04$  17.78$  17.84$
|240>   Q  -1.3290  5.57$  17.07$  17.58$
|241>   Q  0.6645  7.34$  3.77$  19.23$
|242>   Q  0.6645  8.38$  4.94$  18.91$
|243>   Q  -1.3290  7.74$  4.54$  19.3$
|244>   Q  0.6645  6.72$  1.36$  5.4$
|245>   Q  0.6645  7.58$  2.36$  4.43$
|246>   Q  -1.3290  7.29$  2$  5.18$
|247>   Q  0.6645  18.6$  14.59$  13.14$
|248>   Q  0.6645  17.64$  13.84$  12.47$
|249>   Q  -1.3290  18.07$  14.51$  12.56$
|250>   Q  0.6645  4.42$  9.57$  6.87$
|251>   Q  0.6645  3.01$  9.44$  6.73$
|252>   Q  -1.3290  3.66$  9.66$  7.13$
|253>   Q  0.6645  12.87$  8.23$  21$
|254>   Q  0.6645  14.34$  8.58$  20.63$
|255>   Q  -1.3290  13.68$  8.08$  20.75$
|256>   Q  0.6645  7.19$  9.46$  17.44$
|257>   Q  0.6645  6.95$  8.04$  17.39$
|258>   Q  -1.3290  7.44$  8.72$  17.41$
|259>   Q  0.6645  2.67$  12.07$  14.92$
|260>   Q  0.6645  3.48$  11.47$  15.86$
|261>   Q  -1.3290  3.38$  11.94$  15.24$
|262>   Q  0.6645  3.17$  10.48$  10.75$
|263>   Q  0.6645  3.65$  10.27$  9.22$
|264>   Q  -1.3290  3.67$  10.6$  10.02$
|265>   Q  0.6645  13.61$  15.54$  17.35$
|266>   Q  0.6645  12.14$  15.81$  17$
|267>   Q  -1.3290  12.86$  15.92$  17.41$
|268>   Q  0.6645  1.71$  6.06$  12.55$
|269>   Q  0.6645  1.53$  7.1$  11.54$
|270>   Q  -1.3290  1.92$  6.45$  11.87$
|271>   Q  0.6645  17.74$  14$  17.96$
|272>   Q  0.6645  16.8$  12.82$  18.53$
|273>   Q  -1.3290  17.04$  13.63$  18.28$
|274>   Q  0.6645  1.88$  13.22$  9.89$
|275>   Q  0.6645  1.5$  14.33$  8.93$
|276>   Q  -1.3290  1.59$  13.54$  9.18$
|277>   Q  0.6645  14.77$  6.22$  9.35$
|278>   Q  0.6645  13.55$  6.23$  10.28$
|279>   Q  -1.3290  14.36$  6.33$  10.09$
|280>   Q  0.6645  4.66$  19.31$  12.89$
|281>   Q  0.6645  4.78$  18.18$  13.99$
|282>   Q  -1.3290  4.92$  18.56$  13.23$
|283>   Q  0.6645  17.13$  11.29$  4.76$
|284>   Q  0.6645  16.2$  10.15$  5.46$
|285>   Q  -1.3290  16.58$  10.6$  4.81$
|286>   Q  0.6645  17$  13.61$  4.43$
|287>   Q  0.6645  16.16$  14.66$  5.3$
|288>   Q  -1.3290  16.5$  13.89$  5.1$
|289>   Q  0.6645  7.65$  5.03$  7.78$
|290>   Q  0.6645  6.39$  5.72$  8.32$
|291>   Q  -1.3290  7.2$  5.48$  8.33$
|292>   Q  0.6645  10.19$  17.64$  16.13$
|293>   Q  0.6645  9.28$  17.65$  17.48$
|294>   Q  -1.3290  9.46$  17.74$  16.63$
|295>   Q  0.6645  7.7$  15.03$  5.33$
|296>   Q  0.6645  6.95$  14.49$  4.11$
|297>   Q  -1.3290  7.31$  15.07$  4.56$
|298>   Q  0.6645  19$  14.51$  7.42$
|299>   Q  0.6645  19.36$  13.06$  7.32$
|300>   Q  -1.3290  19.53$  13.86$  7.28$
|301>   Q  0.6645  11.88$  5.4$  1$
|302>   Q  0.6645  12.79$  4.28$  1.54$
|303>   Q  -1.3290  12.31$  4.97$  1.6$
|304>   Q  0.6645  17.85$  7.33$  11.91$
|305>   Q  0.6645  17.04$  8.5$  12$
|306>   Q  -1.3290  17.51$  7.99$  11.57$
|307>   Q  0.6645  16.53$  8.31$  15.17$
|308>   Q  0.6645  16.01$  7.37$  16.14$
|309>   Q  -1.3290  16.07$  8.13$  15.84$
|310>   Q  0.6645  5.76$  3.86$  13.61$
|311>   Q  0.6645  5.77$  3.85$  12.17$
|312>   Q  -1.3290  6.04$  4.13$  12.89$
|313>   Q  0.6645  3.64$  9.48$  17.49$
|314>   Q  0.6645  2.61$  10.61$  17.75$
|315>   Q  -1.3290  3.33$  10.29$  17.46$
|316>   Q  0.6645  10.51$  12.03$  18.59$
|317>   Q  0.6645  9.7$  11.63$  17.42$
|318>   Q  -1.3290  10.06$  11.52$  18.16$
|319>   Q  0.6645  18.75$  9.79$  7.35$
|320>   Q  0.6645  18.74$  8.31$  6.69$
|321>   Q  -1.3290  18.98$  8.95$  7.22$
|322>   Q  0.6645  16.64$  11.94$  11.22$
|323>   Q  0.6645  18.21$  11.76$  11.48$
|324>   Q  -1.3290  17.38$  11.9$  11.64$
|325>   Q  0.6645  15.89$  2.4$  5.9$
|326>   Q  0.6645  17.23$  1.74$  5.47$
|327>   Q  -1.3290  16.56$  2.28$  5.39$
|328>   Q  0.6645  9.2$  3.62$  8.51$
|329>   Q  0.6645  8.86$  3.77$  10.06$
|330>   Q  -1.3290  9.23$  3.45$  9.36$
|331>   Q  0.6645  6.44$  3.54$  10.02$
|332>   Q  0.6645  4.91$  3.71$  10.06$
|333>   Q  -1.3290  5.65$  3.37$  10.28$
|334>   Q  0.6645  17.36$  3.94$  4.52$
|335>   Q  0.6645  18.6$  4.71$  3.91$
|336>   Q  -1.3290  17.82$  4.35$  3.92$
|337>   Q  0.6645  12.68$  2.5$  13.86$
|338>   Q  0.6645  11.4$  1.57$  13.96$
|339>   Q  -1.3290  11.85$  2.3$  13.8$
|340>   Q  0.6645  11.96$  14.54$  19.42$
|341>   Q  0.6645  10.67$  13.97$  20.16$
|342>   Q  -1.3290  11.23$  14.11$  19.51$
|343>   Q  0.6645  6.56$  9.61$  11.2$
|344>   Q  0.6645  5.52$  10.71$  10.8$
|345>   Q  -1.3290  6.22$  10.39$  11.15$
|346>   Q  0.6645  11.54$  10.42$  20.98$
|347>   Q  0.6645  12.93$  10.94$  21.49$
|348>   Q  -1.3290  12.07$  10.92$  21.45$
|349>   Q  0.6645  9.82$  16.06$  2.41$
|350>   Q  0.6645  8.56$  16.22$  3.32$
|351>   Q  -1.3290  9.18$  16.49$  2.79$
|352>   Q  0.6645  7.94$  11.64$  4.26$
|353>   Q  0.6645  8.51$  11.75$  2.97$
|354>   Q  -1.3290  8.47$  11.4$  3.71$
|355>   Q  0.6645  8.37$  5.77$  14.53$
|356>   Q  0.6645  8.44$  4.34$  14.89$
|357>   Q  -1.3290  8.44$  5.14$  15.09$
|358>   Q  0.6645  14.45$  15.63$  4.68$
|359>   Q  0.6645  15.3$  16.75$  4.39$
|360>   Q  -1.3290  15.04$  16.12$  4.87$
|361>   Q  0.6645  2.88$  3.91$  8.07$
|362>   Q  0.6645  3.8$  3.68$  6.72$
|363>   Q  -1.3290  3.08$  3.62$  7.25$
|364>   Q  0.6645  19.59$  9.61$  3.64$
|365>   Q  0.6645  21.07$  9.25$  3.77$
|366>   Q  -1.3290  20.28$  9.12$  3.51$
|367>   Q  0.6645  2.9$  13.2$  5.8$
|368>   Q  0.6645  2.27$  13.27$  4.38$
|369>   Q  -1.3290  2.26$  13.21$  5.24$
|370>   Q  0.6645  15.13$  11.47$  4.14$
|371>   Q  0.6645  13.75$  11.11$  3.41$
|372>   Q  -1.3290  14.33$  11.6$  3.82$
|373>   Q  0.6645  11.97$  20.08$  4.48$
|374>   Q  0.6645  12.06$  18.62$  4.91$
|375>   Q  -1.3290  12.34$  19.36$  4.59$
|376>   Q  0.6645  14.67$  18.21$  10.94$
|377>   Q  0.6645  15$  19.22$  11.93$
|378>   Q  -1.3290  14.68$  18.99$  11.19$
|379>   Q  0.6645  8.07$  15.4$  7.55$
|380>   Q  0.6645  7.47$  16.8$  7.33$
|381>   Q  -1.3290  7.58$  16.06$  7.72$
|382>   Q  0.6645  5.88$  5.34$  16.87$
|383>   Q  0.6645  6.84$  6.28$  16.2$
|384>   Q  -1.3290  6.12$  6.07$  16.61$
|385>   Q  0.6645  13.32$  18.83$  7.91$
|386>   Q  0.6645  13.23$  19.99$  6.89$
|387>   Q  -1.3290  13.6$  19.49$  7.49$
|388>   Q  0.6645  1.55$  5.66$  3.97$
|389>   Q  0.6645  2.02$  6.55$  5.2$
|390>   Q  -1.3290  1.84$  6.37$  4.37$
|391>   Q  0.6645  5.56$  7.92$  14.28$
|392>   Q  0.6645  6.2$  9.4$  14.56$
|393>   Q  -1.3290  6.16$  8.51$  14.48$
|394>   Q  0.6645  10.65$  4.58$  20.7$
|395>   Q  0.6645  12.01$  4.84$  20.08$
|396>   Q  -1.3290  11.4$  4.96$  20.62$
|397>   Q  0.6645  4.13$  12.32$  7.87$
|398>   Q  0.6645  4.34$  13.78$  7.39$
|399>   Q  -1.3290  4.37$  12.93$  7.31$
|400>   Q  0.6645  3.66$  17.05$  12.29$
|401>   Q  0.6645  2.99$  16.22$  13.41$
|402>   Q  -1.3290  3.03$  16.63$  12.68$
|403>   Q  0.6645  0.59$  8.44$  14.07$
|404>   Q  0.6645  1.24$  9.09$  15.3$
|405>   Q  -1.3290  1.23$  8.67$  14.58$
|406>   Q  0.6645  8.74$  2.31$  15.96$
|407>   Q  0.6645  7.32$  2.17$  15.28$
|408>   Q  -1.3290  8.17$  2.26$  15.33$
|409>   Q  0.6645  11.04$  12.37$  15.28$
|410>   Q  0.6645  12.44$  12.57$  14.6$
|411>   Q  -1.3290  11.87$  12.6$  15.24$
|412>   Q  0.6645  9.6$  6.88$  2.25$
|413>   Q  0.6645  9.93$  5.89$  1.06$
|414>   Q  -1.3290  9.73$  6.62$  1.44$
|415>   Q  0.6645  14.46$  6.19$  7.25$
|416>   Q  0.6645  15.55$  7.23$  7.02$
|417>   Q  -1.3290  15.03$  6.75$  7.48$
|418>   Q  0.6645  17.15$  5.26$  16.29$
|419>   Q  0.6645  15.77$  5.03$  15.58$
|420>   Q  -1.3290  16.41$  5.5$  15.93$
|421>   Q  0.6645  15.9$  4.65$  10.06$
|422>   Q  0.6645  16.53$  5.19$  8.87$
|423>   Q  -1.3290  16.39$  4.58$  9.39$
|424>   Q  0.6645  4.69$  3.39$  18.63$
|425>   Q  0.6645  5.34$  3.15$  17.16$
|426>   Q  -1.3290  5.25$  3.45$  17.98$
|427>   Q  0.6645  10.03$  16.2$  19.6$
|428>   Q  0.6645  10.23$  17.68$  20.01$
|429>   Q  -1.3290  9.94$  17.02$  19.57$
|430>   Q  0.6645  12.04$  10.57$  1.83$
|431>   Q  0.6645  12.53$  9.32$  2.51$
|432>   Q  -1.3290  12.33$  10.12$  2.49$
|433>   Q  0.6645  14.32$  4.89$  13.75$
|434>   Q  0.6645  13.48$  4.3$  14.85$
|435>   Q  -1.3290  14.05$  4.27$  14.25$
|436>   Q  0.6645  13.8$  21.22$  14.23$
|437>   Q  0.6645  13.59$  20.73$  15.55$
|438>   Q  -1.3290  13.54$  20.67$  14.75$
|439>   Q  0.6645  5.46$  11.82$  1.42$
|440>   Q  0.6645  6.64$  12.76$  1.71$
|441>   Q  -1.3290  5.83$  12.51$  1.76$
|442>   Q  0.6645  5.52$  1.14$  15.48$
|443>   Q  0.6645  4.65$  2.38$  15.06$
|444>   Q  -1.3290  5.34$  1.97$  15.36$
|445>   Q  0.6645  18.69$  11.39$  8.9$
|446>   Q  0.6645  17.64$  11.89$  7.95$
|447>   Q  -1.3290  18.32$  11.47$  8.17$
|448>   Q  0.6645  3.11$  14.45$  15.45$
|449>   Q  0.6645  2.76$  16.02$  15.67$
|450>   Q  -1.3290  3.16$  15.3$  15.36$
|451>   Q  0.6645  15.99$  7.88$  19.33$
|452>   Q  0.6645  17.02$  8.53$  20.3$
|453>   Q  -1.3290  16.34$  8.51$  19.79$
|454>   Q  0.6645  17.41$  6.43$  5.15$
|455>   Q  0.6645  18$  6.34$  6.33$
|456>   Q  -1.3290  17.6$  6.78$  5.84$
|457>   Q  0.6645  6.18$  16.23$  14.35$
|458>   Q  0.6645  5.03$  15.8$  15.3$
|459>   Q  -1.3290  5.81$  16.07$  15.11$
|460>   Q  0.6645  15.82$  15.66$  14.56$
|461>   Q  0.6645  16.55$  15.76$  13.22$
|462>   Q  -1.3290  15.94$  15.95$  13.74$
|463>   Q  0.6645  1.78$  11.52$  12.56$
|464>   Q  0.6645  1.79$  10.12$  13.23$
|465>   Q  -1.3290  1.96$  10.68$  12.61$
|466>   Q  0.6645  4.37$  16.47$  8.84$
|467>   Q  0.6645  4.21$  18.05$  8.53$
|468>   Q  -1.3290  4.12$  17.17$  8.42$
|469>   Q  0.6645  15.39$  11.77$  7.35$
|470>   Q  0.6645  16.16$  12.89$  6.7$
|471>   Q  -1.3290  15.91$  12.44$  7.37$
|472>   Q  0.6645  8.6$  15.61$  21.27$
|473>   Q  0.6645  7.98$  14.43$  20.63$
|474>   Q  -1.3290  8.61$  14.83$  20.97$
|475>   Q  0.6645  18.08$  16.43$  9.61$
|476>   Q  0.6645  17.96$  15.3$  10.62$
|477>   Q  -1.3290  18$  15.64$  9.84$
|478>   Q  0.6645  6.77$  10.3$  6.92$
|479>   Q  0.6645  6.6$  9.81$  5.34$
|480>   Q  -1.3290  6.5$  9.84$  6.23$
|481>   Q  0.6645  10.63$  8.18$  21.74$
|482>   Q  0.6645  10.78$  8.25$  20.21$
|483>   Q  -1.3290  10.94$  8.48$  20.99$
|484>   Q  0.6645  16.1$  10.33$  19.36$
|485>   Q  0.6645  15.09$  11.45$  19.06$
|486>   Q  -1.3290  15.81$  11.13$  19.38$
|487>   Q  0.6645  11.86$  5.5$  15.77$
|488>   Q  0.6645  12.79$  5.42$  16.94$
|489>   Q  -1.3290  12.44$  5.1$  16.26$
|490>   Q  0.6645  6.21$  10.44$  -0.27$
|491>   Q  0.6645  4.86$  10.09$  -0.6$
|492>   Q  -1.3290  5.41$  10.45$  -0.1$
|493>   Q  0.6645  7.08$  19.26$  12.95$
|494>   Q  0.6645  8.26$  18.77$  12$
|495>   Q  -1.3290  7.78$  19.31$  12.44$
|496>   Q  0.6645  14.93$  16.19$  11.99$
|497>   Q  0.6645  15.01$  15.7$  10.46$
|498>   Q  -1.3290  14.87$  16.23$  11.13$
|499>   Q  0.6645  16.95$  11.04$  16.71$
|500>   Q  0.6645  15.91$  10.17$  15.91$
|501>   Q  -1.3290  16.24$  10.89$  16.22$
|502>   Q  0.6645  0.91$  13.66$  16$
|503>   Q  0.6645  0.33$  13.05$  14.58$
|504>   Q  -1.3290  0.91$  13.25$  15.21$
|505>   Q  0.6645  11.12$  4.37$  2.84$
|506>   Q  0.6645  9.89$  3.45$  3.5$
|507>   Q  -1.3290  10.68$  3.88$  3.42$
|508>   Q  0.6645  8.54$  1.82$  17.85$
|509>   Q  0.6645  9.67$  2.9$  17.91$
|510>   Q  -1.3290  9.32$  2.11$  17.76$
|511>   Q  0.6645  8.61$  13.09$  0.81$
|512>   Q  0.6645  8.07$  11.73$  0.56$
|513>   Q  -1.3290  8.28$  12.37$  1.07$
|514>   Q  0.6645  12.7$  10.25$  17.84$
|515>   Q  0.6645  11.19$  10.06$  17.84$
|516>   Q  -1.3290  12.01$  9.8$  17.69$
|517>   Q  0.6645  11.22$  3.5$  9.62$
|518>   Q  0.6645  12.53$  2.57$  9.56$
|519>   Q  -1.3290  12.07$  3.32$  9.57$
|520>   Q  0.6645  10.11$  6.7$  18.41$
|521>   Q  0.6645  8.92$  7.69$  18.22$
|522>   Q  -1.3290  9.41$  7.12$  18.64$
|523>   Q  0.6645  10.53$  14.45$  17.3$
|524>   Q  0.6645  11.11$  14.38$  15.8$
|525>   Q  -1.3290  10.63$  14.64$  16.48$
|526>   Q  0.6645  9.32$  4.98$  11.63$
|527>   Q  0.6645  7.87$  4.72$  12$
|528>   Q  -1.3290  8.5$  5.04$  11.55$
|529>   Q  0.6645  12.11$  0.81$  7.34$
|530>   Q  0.6645  12.49$  1.28$  5.94$
|531>   Q  -1.3290  12.11$  0.77$  6.51$
|532>   Q  0.6645  15.6$  16.04$  16.67$
|533>   Q  0.6645  15.71$  14.5$  16.93$
|534>   Q  -1.3290  15.38$  15.22$  16.57$
|535>   Q  0.6645  19.39$  16.02$  14.5$
|536>   Q  0.6645  20.69$  15.12$  14.03$
|537>   Q  -1.3290  19.88$  15.32$  14.36$
|538>   Q  0.6645  16.05$  9.32$  3.14$
|539>   Q  0.6645  16.55$  8.09$  2.58$
|540>   Q  -1.3290  15.98$  8.67$  2.64$
|541>   Q  0.6645  7.87$  11.47$  15.52$
|542>   Q  0.6645  8.22$  13.02$  15.77$
|543>   Q  -1.3290  8.36$  12.17$  15.75$
|544>   Q  0.6645  9.18$  0.81$  13.84$
|545>   Q  0.6645  9.45$  -0.49$  13.03$
|546>   Q  -1.3290  9.66$  0.2$  13.46$
|547>   Q  0.6645  20.41$  11.49$  10.28$
|548>   Q  0.6645  19.6$  10.15$  10.48$
|549>   Q  -1.3290  19.81$  10.98$  10.64$
|550>   Q  0.6645  15.65$  13.82$  8.72$
|551>   Q  0.6645  16.33$  15.06$  9.44$
|552>   Q  -1.3290  15.68$  14.52$  9.23$
|553>   Q  0.6645  15.28$  18.56$  7.24$
|554>   Q  0.6645  15.55$  17.23$  6.78$
|555>   Q  -1.3290  15.76$  17.96$  7.07$
|556>   Q  0.6645  5.96$  8.84$  3.08$
|557>   Q  0.6645  7.21$  9.66$  3.49$
|558>   Q  -1.3290  6.67$  9.01$  3.51$
|559>   Q  0.6645  9.02$  4.13$  1.12$
|560>   Q  0.6645  8.63$  4.23$  -0.37$
|561>   Q  -1.3290  9.13$  4.04$  0.29$
|562>   Q  0.6645  7.87$  18.77$  16.71$
|563>   Q  0.6645  7.56$  19.68$  17.87$
|564>   Q  -1.3290  7.37$  19.24$  17.2$
|565>   Q  0.6645  13.29$  12.25$  16.82$
|566>   Q  0.6645  14.64$  11.69$  16.75$
|567>   Q  -1.3290  13.98$  11.96$  17.14$
|568>   Q  0.6645  6.31$  11.92$  16.95$
|569>   Q  0.6645  5.28$  11.04$  17.75$
|570>   Q  -1.3290  6.05$  11.29$  17.48$
|571>   Q  0.6645  3.22$  5.51$  9.94$
|572>   Q  0.6645  2.63$  4.08$  10.44$
|573>   Q  -1.3290  3.08$  4.63$  9.95$
|574>   Q  0.6645  2.41$  7.16$  15.17$
|575>   Q  0.6645  3.72$  6.52$  14.89$
|576>   Q  -1.3290  3.08$  6.72$  15.38$
|577>   Q  0.6645  9.46$  0.22$  10.69$
|578>   Q  0.6645  9.71$  1.14$  9.56$
|579>   Q  -1.3290  9.82$  0.46$  10$
|580>   Q  0.6645  -0.22$  11.16$  8.03$
|581>   Q  0.6645  1.07$  11.64$  8.94$
|582>   Q  -1.3290  0.37$  11.15$  8.71$
|583>   Q  0.6645  9.43$  18.27$  5.13$
|584>   Q  0.6645  8.81$  19.57$  5.7$
|585>   Q  -1.3290  8.88$  18.93$  5.18$
|586>   Q  0.6645  5.1$  13.17$  13.18$
|587>   Q  0.6645  5.05$  14.51$  12.51$
|588>   Q  -1.3290  4.82$  13.71$  12.63$
|589>   Q  0.6645  11.52$  12.59$  0.66$
|590>   Q  0.6645  12.32$  13.9$  0.93$
|591>   Q  -1.3290  11.64$  13.37$  0.99$
|592>   Q  0.6645  15.56$  13.45$  14.18$
|593>   Q  0.6645  16.31$  12.45$  15.09$
|594>   Q  -1.3290  16.23$  13.03$  14.48$
|595>   Q  0.6645  4.21$  14.43$  10$
|596>   Q  0.6645  5.57$  14.32$  9.34$
|597>   Q  -1.3290  4.83$  14.64$  9.48$
|598>   Q  0.6645  20.33$  5.52$  12.37$
|599>   Q  0.6645  18.76$  5.13$  12.65$
|600>   Q  -1.3290  19.49$  5.38$  12.21$
|601>   Q  0.6645  8.45$  7.39$  20.18$
|602>   Q  0.6645  8.35$  7.62$  21.68$
|603>   Q  -1.3290  8.1$  7.7$  20.87$
|604>   Q  0.6645  3.94$  6.86$  12.6$
|605>   Q  0.6645  5.1$  5.83$  13.03$
|606>   Q  -1.3290  4.61$  6.54$  13.03$
|607>   Q  0.6645  3.08$  4.73$  14.76$
|608>   Q  0.6645  3.03$  3.81$  13.63$
|609>   Q  -1.3290  3.3$  4.06$  14.36$
|610>   Q  0.6645  12.37$  18.79$  14.93$
|611>   Q  0.6645  12.55$  17.71$  16$
|612>   Q  -1.3290  12.21$  18.05$  15.32$
|613>   Q  0.6645  18.93$  14.46$  4.95$
|614>   Q  0.6645  19.2$  15.6$  4.13$
|615>   Q  -1.3290  19.14$  14.83$  4.26$
|616>   Q  0.6645  13.24$  7.25$  18.63$
|617>   Q  0.6645  12.55$  7.6$  17.42$
|618>   Q  -1.3290  12.81$  7.07$  17.96$
|619>   Q  0.6645  6.18$  7.39$  11.99$
|620>   Q  0.6645  7.24$  6.85$  11.13$
|621>   Q  -1.3290  6.74$  7.41$  11.4$
|622>   Q  0.6645  12.37$  19.74$  11.61$
|623>   Q  0.6645  11.52$  20.85$  12.37$
|624>   Q  -1.3290  11.77$  20.37$  11.71$
|625>   Q  0.6645  4.85$  12.52$  20.17$
|626>   Q  0.6645  3.65$  11.59$  19.97$
|627>   Q  -1.3290  4.09$  12.3$  19.89$
|628>   Q  0.6645  19.71$  5.05$  7.64$
|629>   Q  0.6645  18.9$  4.03$  6.95$
|630>   Q  -1.3290  19.25$  4.77$  7.02$
|631>   Q  0.6645  13.19$  3.32$  5.89$
|632>   Q  0.6645  12.4$  3.27$  4.54$
|633>   Q  -1.3290  12.93$  3$  5.15$
|634>   Q  0.6645  5.08$  7.59$  9.17$
|635>   Q  0.6645  4.38$  7.16$  7.88$
|636>   Q  -1.3290  4.71$  7.07$  8.63$
|637>   Q  0.6645  18.14$  19.13$  8.85$
|638>   Q  0.6645  17.02$  18.23$  8.49$
|639>   Q  -1.3290  17.65$  18.44$  8.97$
|640>   Q  0.6645  8.56$  5.17$  3.1$
|641>   Q  0.6645  7.19$  4.48$  2.58$
|642>   Q  -1.3290  8.08$  4.57$  2.74$
|643>   Q  0.6645  6.47$  12.59$  19.04$
|644>   Q  0.6645  7$  14.01$  18.86$
|645>   Q  -1.3290  6.7$  13.37$  19.28$
|646>   Q  0.6645  18.76$  9.84$  17.01$
|647>   Q  0.6645  19.11$  11.11$  17.96$
|648>   Q  -1.3290  18.69$  10.63$  17.34$
|649>   Q  0.6645  18.81$  7.52$  3.08$
|650>   Q  0.6645  17.93$  6.51$  2.21$
|651>   Q  -1.3290  18.19$  7.27$  2.56$
|652>   Q  0.6645  4.22$  7.22$  17.63$
|653>   Q  0.6645  4.38$  7.18$  19.23$
|654>   Q  -1.3290  4.13$  7.49$  18.45$
|655>   Q  0.6645  16.55$  3.95$  12.13$
|656>   Q  0.6645  16.43$  5.19$  13.05$
|657>   Q  -1.3290  16.76$  4.48$  12.76$
|658>   Q  0.6645  8.37$  10.79$  19.83$
|659>   Q  0.6645  8.05$  9.66$  20.81$
|660>   Q  -1.3290  8.07$  10.46$  20.57$
|661>   Q  0.6645  19.79$  11.86$  5.22$
|662>   Q  0.6645  19.04$  12.49$  3.9$
|663>   Q  -1.3290  19.17$  11.95$  4.58$
|664>   Q  0.6645  17.48$  6.49$  14.56$
|665>   Q  0.6645  18.66$  7.42$  14.22$
|666>   Q  -1.3290  17.94$  7.01$  14.09$
|667>   Q  0.6645  4.96$  3.97$  2.45$
|668>   Q  0.6645  5.21$  4.45$  3.87$
|669>   Q  -1.3290  5.34$  4.41$  3.04$
|670>   Q  0.6645  11.32$  17.14$  6.28$
|671>   Q  0.6645  11.82$  16.51$  4.88$
|672>   Q  -1.3290  11.34$  16.98$  5.42$
|673> *
|674> 
|675>                          ****END OF INPUT****
================================================================================

                     *******************************
                     * Energy+Gradient Calculation *
                     *******************************

---------------------------------
CARTESIAN COORDINATES (ANGSTROEM)
---------------------------------
  C     10.090000   11.000000   11.820000
  H      9.580000   10.330000   11.080000
  H      9.330000   11.770000   12.210000
  C     11.330000   11.650000   11.140000
  H     11.310000   12.740000   11.390000
  H     12.250000   11.240000   11.540000
  C     11.220000   11.500000    9.590000
  H     12.060000   12.040000    9.110000
  H     10.370000   12.040000    9.340000
  C     11.150000   10.080000    9.080000
  H     11.130000    9.460000    9.970000
  H     11.970000    9.870000    8.380000
  O      9.930000    9.820000    8.470000
  H      9.840000    8.830000    8.460000
  O     10.520000   10.190000   12.950000
  H      9.750000    9.670000   13.190000
  O     11.530000   13.520000    6.550000
  H     11.760000   13.500000    5.580000
  H     11.260000   12.580000    6.680000
  O      8.610000   14.430000   12.110000
  H      8.940000   14.110000   12.920000
  H      9.110000   15.230000   11.880000
  O     13.050000    8.430000   12.080000
  H     13.710000    7.810000   12.400000
  H     12.580000    8.870000   12.800000
  O     10.800000   15.640000   10.660000
  H     11.620000   15.460000   10.200000
  H     10.890000   16.580000   10.720000
  O     10.490000    6.580000    6.060000
  H     10.020000    6.800000    6.880000
  H     11.100000    7.330000    5.710000
  O     14.850000    6.410000   13.020000
  H     15.640000    6.810000   13.400000
  H     15.040000    6.390000   12.030000
  O     13.590000   13.120000   13.130000
  H     12.930000   13.740000   12.740000
  H     14.170000   12.670000   12.480000
  O      9.690000    7.030000    9.010000
  H      8.850000    6.560000    9.070000
  H     10.310000    6.620000    9.590000
  O     14.620000   11.840000   11.040000
  H     14.460000   11.040000   10.520000
  H     14.230000   12.530000   10.550000
  O     11.090000    6.860000   14.840000
  H     10.400000    7.410000   14.370000
  H     11.830000    7.400000   14.670000
  O     14.770000    9.780000    6.830000
  H     14.570000    9.100000    7.500000
  H     14.200000    9.570000    6.090000
  O     13.150000    9.020000   14.780000
  H     12.750000    9.510000   15.530000
  H     14.030000    8.750000   15.160000
  O     12.390000    8.670000    5.660000
  H     11.970000    9.530000    5.460000
  H     12.570000    8.320000    4.770000
  O     15.940000    9.730000   13.200000
  H     16.330000   10.540000   12.910000
  H     15.010000    9.960000   12.930000
  O      7.840000   11.360000    7.980000
  H      8.510000   10.780000    8.360000
  H      7.630000   11.950000    8.740000
  O     11.530000   12.790000    3.620000
  H     11.780000   11.870000    3.690000
  H     11.170000   12.920000    2.720000
  O      8.730000    6.890000    3.950000
  H      9.280000    7.020000    4.750000
  H      8.080000    7.620000    4.000000
  O     10.100000   18.360000   10.330000
  H      9.260000   18.560000    9.840000
  H     10.410000   19.190000   10.710000
  O      8.860000    3.890000    6.710000
  H      9.350000    4.340000    6.020000
  H      8.550000    3.040000    6.350000
  O     11.770000   15.250000   13.380000
  H     11.670000   15.570000   12.480000
  H     11.780000   15.950000   13.990000
  O     13.060000    5.180000    7.170000
  H     12.320000    5.580000    6.710000
  H     12.730000    4.750000    8.010000
  O     11.870000    6.470000   10.850000
  H     12.140000    7.340000   11.290000
  H     11.510000    5.980000   11.590000
  O      6.430000   15.780000   12.710000
  H      6.510000   16.440000   12.030000
  H      7.080000   15.200000   12.340000
  O      8.450000   13.830000    6.840000
  H      8.030000   13.020000    7.080000
  H      9.360000   13.600000    6.540000
  O      7.190000   13.100000   10.000000
  H      7.000000   12.800000   10.890000
  H      7.950000   13.680000   10.130000
  O     12.800000   14.910000    8.800000
  H     12.560000   14.260000    8.090000
  H     13.740000   14.920000    9.020000
  O     12.960000   15.200000    3.730000
  H     12.520000   14.280000    3.780000
  H     12.840000   15.380000    2.800000
  O      8.750000    7.890000   13.370000
  H      8.260000    7.390000   12.690000
  H      7.890000    8.310000   13.790000
  O     14.830000    9.360000    9.990000
  H     14.080000    8.760000   10.370000
  H     15.640000    8.940000   10.350000
  O     11.790000   17.430000    8.170000
  H     11.090000   17.710000    8.860000
  H     12.070000   16.560000    8.500000
  O     10.540000   10.900000    5.780000
  H     10.180000   10.440000    6.530000
  H      9.860000   11.100000    5.170000
  Q      9.340000    5.130000   16.980000
  Q     10.800000    4.660000   17.160000
  Q     10.000000    4.750000   17.380000
  Q      2.380000    5.780000    7.170000
  Q      1.750000    7.130000    7.510000
  Q      2.240000    6.600000    7.060000
  Q     10.940000    3.990000   13.320000
  Q     10.720000    5.470000   13.710000
  Q     10.880000    4.840000   13.180000
  Q      5.140000   15.610000    5.370000
  Q      4.250000   16.320000    6.530000
  Q      4.580000   16.200000    5.740000
  Q      5.970000    5.550000   19.810000
  Q      6.050000    6.610000   20.800000
  Q      5.650000    6.130000   20.260000
  Q     14.680000    2.370000   11.080000
  Q     13.830000    3.570000   11.500000
  Q     14.530000    3.160000   11.240000
  Q      6.170000   11.060000   13.380000
  Q      5.130000   11.440000   14.460000
  Q      5.880000   11.360000   14.120000
  Q     20.260000   12.120000   13.840000
  Q     20.450000   12.430000   12.340000
  Q     20.550000   12.560000   13.160000
  Q      7.070000   18.850000    6.410000
  Q      7.110000   19.440000    7.830000
  Q      6.760000   19.040000    7.170000
  Q      2.820000   13.350000   12.230000
  Q      1.200000   13.630000   12.520000
  Q      1.920000   13.260000   12.160000
  Q     18.050000    7.700000   16.770000
  Q     19.670000    7.480000   16.640000
  Q     18.890000    7.900000   16.790000
  Q      7.530000   19.790000    9.710000
  Q      8.920000   20.560000    9.370000
  Q      8.200000   20.030000    9.240000
  Q      7.030000    0.780000   10.450000
  Q      7.140000   -0.160000   11.730000
  Q      7.190000    0.590000   11.280000
  Q      6.230000   17.950000   10.350000
  Q      7.160000   17.010000    9.640000
  Q      6.820000   17.380000   10.300000
  Q     15.370000    9.590000    0.850000
  Q     15.600000   10.550000   -0.390000
  Q     15.230000   10.260000    0.350000
  Q     17.630000   17.530000   15.270000
  Q     18.830000   18.330000   15.000000
  Q     18.390000   17.600000   15.060000
  Q      8.320000   14.900000   17.320000
  Q      7.170000   15.340000   16.490000
  Q      7.520000   14.910000   17.120000
  Q      5.430000    7.200000    4.910000
  Q      6.020000    7.830000    6.140000
  Q      5.620000    7.230000    5.710000
  Q     21.140000   13.670000    9.570000
  Q     19.790000   14.080000   10.340000
  Q     20.610000   13.840000   10.230000
  Q     15.170000   12.060000    1.110000
  Q     14.880000   12.890000    2.340000
  Q     15.060000   12.770000    1.530000
  Q      3.620000    6.700000    3.530000
  Q      4.990000    6.670000    2.690000
  Q      4.290000    7.030000    3.090000
  Q     14.860000   19.230000   14.190000
  Q     15.440000   17.930000   13.530000
  Q     15.380000   18.770000   13.700000
  Q      3.230000   18.590000   15.840000
  Q      4.750000   18.160000   16.040000
  Q      4.050000   18.600000   15.680000
  Q     13.090000    6.700000    2.530000
  Q     14.220000    7.850000    2.700000
  Q     13.420000    7.470000    2.790000
  Q     10.210000   21.920000    6.250000
  Q      8.800000   21.980000    5.700000
  Q      9.440000   21.610000    6.120000
  Q     14.870000    1.480000    8.290000
  Q     15.020000    2.990000    8.360000
  Q     14.990000    2.280000    7.970000
  Q     19.480000    8.380000    8.960000
  Q     18.710000    8.350000   10.340000
  Q     19.400000    8.390000    9.820000
  Q     17.870000   18.660000   11.020000
  Q     17.600000   18.670000   12.590000
  Q     18.060000   18.750000   11.880000
  Q     18.180000   13.350000    1.520000
  Q     16.840000   12.720000    1.900000
  Q     17.670000   12.840000    1.960000
  Q     19.550000    9.430000   14.130000
  Q     20.090000    8.850000   12.810000
  Q     19.980000    8.880000   13.650000
  Q     12.060000    0.380000    9.770000
  Q     13.200000   -0.460000    9.040000
  Q     12.750000    0.250000    9.250000
  Q      5.700000   12.280000    3.910000
  Q      5.890000   12.460000    5.510000
  Q      6.120000   12.390000    4.670000
  Q      5.420000    5.140000    5.970000
  Q      6.190000    3.890000    5.860000
  Q      5.500000    4.330000    5.950000
  Q     18.900000   11.320000   15.430000
  Q     18.280000   12.010000   14.160000
  Q     18.760000   11.440000   14.600000
  Q      5.710000   16.470000   16.960000
  Q      6.040000   17.780000   17.840000
  Q      5.570000   17.070000   17.580000
  Q      7.340000    3.770000   19.230000
  Q      8.380000    4.940000   18.910000
  Q      7.740000    4.540000   19.300000
  Q      6.720000    1.360000    5.400000
  Q      7.580000    2.360000    4.430000
  Q      7.290000    2.000000    5.180000
  Q     18.600000   14.590000   13.140000
  Q     17.640000   13.840000   12.470000
  Q     18.070000   14.510000   12.560000
  Q      4.420000    9.570000    6.870000
  Q      3.010000    9.440000    6.730000
  Q      3.660000    9.660000    7.130000
  Q     12.870000    8.230000   21.000000
  Q     14.340000    8.580000   20.630000
  Q     13.680000    8.080000   20.750000
  Q      7.190000    9.460000   17.440000
  Q      6.950000    8.040000   17.390000
  Q      7.440000    8.720000   17.410000
  Q      2.670000   12.070000   14.920000
  Q      3.480000   11.470000   15.860000
  Q      3.380000   11.940000   15.240000
  Q      3.170000   10.480000   10.750000
  Q      3.650000   10.270000    9.220000
  Q      3.670000   10.600000   10.020000
  Q     13.610000   15.540000   17.350000
  Q     12.140000   15.810000   17.000000
  Q     12.860000   15.920000   17.410000
  Q      1.710000    6.060000   12.550000
  Q      1.530000    7.100000   11.540000
  Q      1.920000    6.450000   11.870000
  Q     17.740000   14.000000   17.960000
  Q     16.800000   12.820000   18.530000
  Q     17.040000   13.630000   18.280000
  Q      1.880000   13.220000    9.890000
  Q      1.500000   14.330000    8.930000
  Q      1.590000   13.540000    9.180000
  Q     14.770000    6.220000    9.350000
  Q     13.550000    6.230000   10.280000
  Q     14.360000    6.330000   10.090000
  Q      4.660000   19.310000   12.890000
  Q      4.780000   18.180000   13.990000
  Q      4.920000   18.560000   13.230000
  Q     17.130000   11.290000    4.760000
  Q     16.200000   10.150000    5.460000
  Q     16.580000   10.600000    4.810000
  Q     17.000000   13.610000    4.430000
  Q     16.160000   14.660000    5.300000
  Q     16.500000   13.890000    5.100000
  Q      7.650000    5.030000    7.780000
  Q      6.390000    5.720000    8.320000
  Q      7.200000    5.480000    8.330000
  Q     10.190000   17.640000   16.130000
  Q      9.280000   17.650000   17.480000
  Q      9.460000   17.740000   16.630000
  Q      7.700000   15.030000    5.330000
  Q      6.950000   14.490000    4.110000
  Q      7.310000   15.070000    4.560000
  Q     19.000000   14.510000    7.420000
  Q     19.360000   13.060000    7.320000
  Q     19.530000   13.860000    7.280000
  Q     11.880000    5.400000    1.000000
  Q     12.790000    4.280000    1.540000
  Q     12.310000    4.970000    1.600000
  Q     17.850000    7.330000   11.910000
  Q     17.040000    8.500000   12.000000
  Q     17.510000    7.990000   11.570000
  Q     16.530000    8.310000   15.170000
  Q     16.010000    7.370000   16.140000
  Q     16.070000    8.130000   15.840000
  Q      5.760000    3.860000   13.610000
  Q      5.770000    3.850000   12.170000
  Q      6.040000    4.130000   12.890000
  Q      3.640000    9.480000   17.490000
  Q      2.610000   10.610000   17.750000
  Q      3.330000   10.290000   17.460000
  Q     10.510000   12.030000   18.590000
  Q      9.700000   11.630000   17.420000
  Q     10.060000   11.520000   18.160000
  Q     18.750000    9.790000    7.350000
  Q     18.740000    8.310000    6.690000
  Q     18.980000    8.950000    7.220000
  Q     16.640000   11.940000   11.220000
  Q     18.210000   11.760000   11.480000
  Q     17.380000   11.900000   11.640000
  Q     15.890000    2.400000    5.900000
  Q     17.230000    1.740000    5.470000
  Q     16.560000    2.280000    5.390000
  Q      9.200000    3.620000    8.510000
  Q      8.860000    3.770000   10.060000
  Q      9.230000    3.450000    9.360000
  Q      6.440000    3.540000   10.020000
  Q      4.910000    3.710000   10.060000
  Q      5.650000    3.370000   10.280000
  Q     17.360000    3.940000    4.520000
  Q     18.600000    4.710000    3.910000
  Q     17.820000    4.350000    3.920000
  Q     12.680000    2.500000   13.860000
  Q     11.400000    1.570000   13.960000
  Q     11.850000    2.300000   13.800000
  Q     11.960000   14.540000   19.420000
  Q     10.670000   13.970000   20.160000
  Q     11.230000   14.110000   19.510000
  Q      6.560000    9.610000   11.200000
  Q      5.520000   10.710000   10.800000
  Q      6.220000   10.390000   11.150000
  Q     11.540000   10.420000   20.980000
  Q     12.930000   10.940000   21.490000
  Q     12.070000   10.920000   21.450000
  Q      9.820000   16.060000    2.410000
  Q      8.560000   16.220000    3.320000
  Q      9.180000   16.490000    2.790000
  Q      7.940000   11.640000    4.260000
  Q      8.510000   11.750000    2.970000
  Q      8.470000   11.400000    3.710000
  Q      8.370000    5.770000   14.530000
  Q      8.440000    4.340000   14.890000
  Q      8.440000    5.140000   15.090000
  Q     14.450000   15.630000    4.680000
  Q     15.300000   16.750000    4.390000
  Q     15.040000   16.120000    4.870000
  Q      2.880000    3.910000    8.070000
  Q      3.800000    3.680000    6.720000
  Q      3.080000    3.620000    7.250000
  Q     19.590000    9.610000    3.640000
  Q     21.070000    9.250000    3.770000
  Q     20.280000    9.120000    3.510000
  Q      2.900000   13.200000    5.800000
  Q      2.270000   13.270000    4.380000
  Q      2.260000   13.210000    5.240000
  Q     15.130000   11.470000    4.140000
  Q     13.750000   11.110000    3.410000
  Q     14.330000   11.600000    3.820000
  Q     11.970000   20.080000    4.480000
  Q     12.060000   18.620000    4.910000
  Q     12.340000   19.360000    4.590000
  Q     14.670000   18.210000   10.940000
  Q     15.000000   19.220000   11.930000
  Q     14.680000   18.990000   11.190000
  Q      8.070000   15.400000    7.550000
  Q      7.470000   16.800000    7.330000
  Q      7.580000   16.060000    7.720000
  Q      5.880000    5.340000   16.870000
  Q      6.840000    6.280000   16.200000
  Q      6.120000    6.070000   16.610000
  Q     13.320000   18.830000    7.910000
  Q     13.230000   19.990000    6.890000
  Q     13.600000   19.490000    7.490000
  Q      1.550000    5.660000    3.970000
  Q      2.020000    6.550000    5.200000
  Q      1.840000    6.370000    4.370000
  Q      5.560000    7.920000   14.280000
  Q      6.200000    9.400000   14.560000
  Q      6.160000    8.510000   14.480000
  Q     10.650000    4.580000   20.700000
  Q     12.010000    4.840000   20.080000
  Q     11.400000    4.960000   20.620000
  Q      4.130000   12.320000    7.870000
  Q      4.340000   13.780000    7.390000
  Q      4.370000   12.930000    7.310000
  Q      3.660000   17.050000   12.290000
  Q      2.990000   16.220000   13.410000
  Q      3.030000   16.630000   12.680000
  Q      0.590000    8.440000   14.070000
  Q      1.240000    9.090000   15.300000
  Q      1.230000    8.670000   14.580000
  Q      8.740000    2.310000   15.960000
  Q      7.320000    2.170000   15.280000
  Q      8.170000    2.260000   15.330000
  Q     11.040000   12.370000   15.280000
  Q     12.440000   12.570000   14.600000
  Q     11.870000   12.600000   15.240000
  Q      9.600000    6.880000    2.250000
  Q      9.930000    5.890000    1.060000
  Q      9.730000    6.620000    1.440000
  Q     14.460000    6.190000    7.250000
  Q     15.550000    7.230000    7.020000
  Q     15.030000    6.750000    7.480000
  Q     17.150000    5.260000   16.290000
  Q     15.770000    5.030000   15.580000
  Q     16.410000    5.500000   15.930000
  Q     15.900000    4.650000   10.060000
  Q     16.530000    5.190000    8.870000
  Q     16.390000    4.580000    9.390000
  Q      4.690000    3.390000   18.630000
  Q      5.340000    3.150000   17.160000
  Q      5.250000    3.450000   17.980000
  Q     10.030000   16.200000   19.600000
  Q     10.230000   17.680000   20.010000
  Q      9.940000   17.020000   19.570000
  Q     12.040000   10.570000    1.830000
  Q     12.530000    9.320000    2.510000
  Q     12.330000   10.120000    2.490000
  Q     14.320000    4.890000   13.750000
  Q     13.480000    4.300000   14.850000
  Q     14.050000    4.270000   14.250000
  Q     13.800000   21.220000   14.230000
  Q     13.590000   20.730000   15.550000
  Q     13.540000   20.670000   14.750000
  Q      5.460000   11.820000    1.420000
  Q      6.640000   12.760000    1.710000
  Q      5.830000   12.510000    1.760000
  Q      5.520000    1.140000   15.480000
  Q      4.650000    2.380000   15.060000
  Q      5.340000    1.970000   15.360000
  Q     18.690000   11.390000    8.900000
  Q     17.640000   11.890000    7.950000
  Q     18.320000   11.470000    8.170000
  Q      3.110000   14.450000   15.450000
  Q      2.760000   16.020000   15.670000
  Q      3.160000   15.300000   15.360000
  Q     15.990000    7.880000   19.330000
  Q     17.020000    8.530000   20.300000
  Q     16.340000    8.510000   19.790000
  Q     17.410000    6.430000    5.150000
  Q     18.000000    6.340000    6.330000
  Q     17.600000    6.780000    5.840000
  Q      6.180000   16.230000   14.350000
  Q      5.030000   15.800000   15.300000
  Q      5.810000   16.070000   15.110000
  Q     15.820000   15.660000   14.560000
  Q     16.550000   15.760000   13.220000
  Q     15.940000   15.950000   13.740000
  Q      1.780000   11.520000   12.560000
  Q      1.790000   10.120000   13.230000
  Q      1.960000   10.680000   12.610000
  Q      4.370000   16.470000    8.840000
  Q      4.210000   18.050000    8.530000
  Q      4.120000   17.170000    8.420000
  Q     15.390000   11.770000    7.350000
  Q     16.160000   12.890000    6.700000
  Q     15.910000   12.440000    7.370000
  Q      8.600000   15.610000   21.270000
  Q      7.980000   14.430000   20.630000
  Q      8.610000   14.830000   20.970000
  Q     18.080000   16.430000    9.610000
  Q     17.960000   15.300000   10.620000
  Q     18.000000   15.640000    9.840000
  Q      6.770000   10.300000    6.920000
  Q      6.600000    9.810000    5.340000
  Q      6.500000    9.840000    6.230000
  Q     10.630000    8.180000   21.740000
  Q     10.780000    8.250000   20.210000
  Q     10.940000    8.480000   20.990000
  Q     16.100000   10.330000   19.360000
  Q     15.090000   11.450000   19.060000
  Q     15.810000   11.130000   19.380000
  Q     11.860000    5.500000   15.770000
  Q     12.790000    5.420000   16.940000
  Q     12.440000    5.100000   16.260000
  Q      6.210000   10.440000   -0.270000
  Q      4.860000   10.090000   -0.600000
  Q      5.410000   10.450000   -0.100000
  Q      7.080000   19.260000   12.950000
  Q      8.260000   18.770000   12.000000
  Q      7.780000   19.310000   12.440000
  Q     14.930000   16.190000   11.990000
  Q     15.010000   15.700000   10.460000
  Q     14.870000   16.230000   11.130000
  Q     16.950000   11.040000   16.710000
  Q     15.910000   10.170000   15.910000
  Q     16.240000   10.890000   16.220000
  Q      0.910000   13.660000   16.000000
  Q      0.330000   13.050000   14.580000
  Q      0.910000   13.250000   15.210000
  Q     11.120000    4.370000    2.840000
  Q      9.890000    3.450000    3.500000
  Q     10.680000    3.880000    3.420000
  Q      8.540000    1.820000   17.850000
  Q      9.670000    2.900000   17.910000
  Q      9.320000    2.110000   17.760000
  Q      8.610000   13.090000    0.810000
  Q      8.070000   11.730000    0.560000
  Q      8.280000   12.370000    1.070000
  Q     12.700000   10.250000   17.840000
  Q     11.190000   10.060000   17.840000
  Q     12.010000    9.800000   17.690000
  Q     11.220000    3.500000    9.620000
  Q     12.530000    2.570000    9.560000
  Q     12.070000    3.320000    9.570000
  Q     10.110000    6.700000   18.410000
  Q      8.920000    7.690000   18.220000
  Q      9.410000    7.120000   18.640000
  Q     10.530000   14.450000   17.300000
  Q     11.110000   14.380000   15.800000
  Q     10.630000   14.640000   16.480000
  Q      9.320000    4.980000   11.630000
  Q      7.870000    4.720000   12.000000
  Q      8.500000    5.040000   11.550000
  Q     12.110000    0.810000    7.340000
  Q     12.490000    1.280000    5.940000
  Q     12.110000    0.770000    6.510000
  Q     15.600000   16.040000   16.670000
  Q     15.710000   14.500000   16.930000
  Q     15.380000   15.220000   16.570000
  Q     19.390000   16.020000   14.500000
  Q     20.690000   15.120000   14.030000
  Q     19.880000   15.320000   14.360000
  Q     16.050000    9.320000    3.140000
  Q     16.550000    8.090000    2.580000
  Q     15.980000    8.670000    2.640000
  Q      7.870000   11.470000   15.520000
  Q      8.220000   13.020000   15.770000
  Q      8.360000   12.170000   15.750000
  Q      9.180000    0.810000   13.840000
  Q      9.450000   -0.490000   13.030000
  Q      9.660000    0.200000   13.460000
  Q     20.410000   11.490000   10.280000
  Q     19.600000   10.150000   10.480000
  Q     19.810000   10.980000   10.640000
  Q     15.650000   13.820000    8.720000
  Q     16.330000   15.060000    9.440000
  Q     15.680000   14.520000    9.230000
  Q     15.280000   18.560000    7.240000
  Q     15.550000   17.230000    6.780000
  Q     15.760000   17.960000    7.070000
  Q      5.960000    8.840000    3.080000
  Q      7.210000    9.660000    3.490000
  Q      6.670000    9.010000    3.510000
  Q      9.020000    4.130000    1.120000
  Q      8.630000    4.230000   -0.370000
  Q      9.130000    4.040000    0.290000
  Q      7.870000   18.770000   16.710000
  Q      7.560000   19.680000   17.870000
  Q      7.370000   19.240000   17.200000
  Q     13.290000   12.250000   16.820000
  Q     14.640000   11.690000   16.750000
  Q     13.980000   11.960000   17.140000
  Q      6.310000   11.920000   16.950000
  Q      5.280000   11.040000   17.750000
  Q      6.050000   11.290000   17.480000
  Q      3.220000    5.510000    9.940000
  Q      2.630000    4.080000   10.440000
  Q      3.080000    4.630000    9.950000
  Q      2.410000    7.160000   15.170000
  Q      3.720000    6.520000   14.890000
  Q      3.080000    6.720000   15.380000
  Q      9.460000    0.220000   10.690000
  Q      9.710000    1.140000    9.560000
  Q      9.820000    0.460000   10.000000
  Q     -0.220000   11.160000    8.030000
  Q      1.070000   11.640000    8.940000
  Q      0.370000   11.150000    8.710000
  Q      9.430000   18.270000    5.130000
  Q      8.810000   19.570000    5.700000
  Q      8.880000   18.930000    5.180000
  Q      5.100000   13.170000   13.180000
  Q      5.050000   14.510000   12.510000
  Q      4.820000   13.710000   12.630000
  Q     11.520000   12.590000    0.660000
  Q     12.320000   13.900000    0.930000
  Q     11.640000   13.370000    0.990000
  Q     15.560000   13.450000   14.180000
  Q     16.310000   12.450000   15.090000
  Q     16.230000   13.030000   14.480000
  Q      4.210000   14.430000   10.000000
  Q      5.570000   14.320000    9.340000
  Q      4.830000   14.640000    9.480000
  Q     20.330000    5.520000   12.370000
  Q     18.760000    5.130000   12.650000
  Q     19.490000    5.380000   12.210000
  Q      8.450000    7.390000   20.180000
  Q      8.350000    7.620000   21.680000
  Q      8.100000    7.700000   20.870000
  Q      3.940000    6.860000   12.600000
  Q      5.100000    5.830000   13.030000
  Q      4.610000    6.540000   13.030000
  Q      3.080000    4.730000   14.760000
  Q      3.030000    3.810000   13.630000
  Q      3.300000    4.060000   14.360000
  Q     12.370000   18.790000   14.930000
  Q     12.550000   17.710000   16.000000
  Q     12.210000   18.050000   15.320000
  Q     18.930000   14.460000    4.950000
  Q     19.200000   15.600000    4.130000
  Q     19.140000   14.830000    4.260000
  Q     13.240000    7.250000   18.630000
  Q     12.550000    7.600000   17.420000
  Q     12.810000    7.070000   17.960000
  Q      6.180000    7.390000   11.990000
  Q      7.240000    6.850000   11.130000
  Q      6.740000    7.410000   11.400000
  Q     12.370000   19.740000   11.610000
  Q     11.520000   20.850000   12.370000
  Q     11.770000   20.370000   11.710000
  Q      4.850000   12.520000   20.170000
  Q      3.650000   11.590000   19.970000
  Q      4.090000   12.300000   19.890000
  Q     19.710000    5.050000    7.640000
  Q     18.900000    4.030000    6.950000
  Q     19.250000    4.770000    7.020000
  Q     13.190000    3.320000    5.890000
  Q     12.400000    3.270000    4.540000
  Q     12.930000    3.000000    5.150000
  Q      5.080000    7.590000    9.170000
  Q      4.380000    7.160000    7.880000
  Q      4.710000    7.070000    8.630000
  Q     18.140000   19.130000    8.850000
  Q     17.020000   18.230000    8.490000
  Q     17.650000   18.440000    8.970000
  Q      8.560000    5.170000    3.100000
  Q      7.190000    4.480000    2.580000
  Q      8.080000    4.570000    2.740000
  Q      6.470000   12.590000   19.040000
  Q      7.000000   14.010000   18.860000
  Q      6.700000   13.370000   19.280000
  Q     18.760000    9.840000   17.010000
  Q     19.110000   11.110000   17.960000
  Q     18.690000   10.630000   17.340000
  Q     18.810000    7.520000    3.080000
  Q     17.930000    6.510000    2.210000
  Q     18.190000    7.270000    2.560000
  Q      4.220000    7.220000   17.630000
  Q      4.380000    7.180000   19.230000
  Q      4.130000    7.490000   18.450000
  Q     16.550000    3.950000   12.130000
  Q     16.430000    5.190000   13.050000
  Q     16.760000    4.480000   12.760000
  Q      8.370000   10.790000   19.830000
  Q      8.050000    9.660000   20.810000
  Q      8.070000   10.460000   20.570000
  Q     19.790000   11.860000    5.220000
  Q     19.040000   12.490000    3.900000
  Q     19.170000   11.950000    4.580000
  Q     17.480000    6.490000   14.560000
  Q     18.660000    7.420000   14.220000
  Q     17.940000    7.010000   14.090000
  Q      4.960000    3.970000    2.450000
  Q      5.210000    4.450000    3.870000
  Q      5.340000    4.410000    3.040000
  Q     11.320000   17.140000    6.280000
  Q     11.820000   16.510000    4.880000
  Q     11.340000   16.980000    5.420000

----------------------------
CARTESIAN COORDINATES (A.U.)
----------------------------
  NO LB      ZA    FRAG     MASS         X           Y           Z
   0 C     6.0000    0    12.011   19.067337   20.786987   22.336563
   1 H     1.0000    0     1.008   18.103576   19.520871   20.938166
   2 H     1.0000    0     1.008   17.631145   22.242077   23.073556
   3 C     6.0000    0    12.011   21.410597   22.015309   21.051549
   4 H     1.0000    0     1.008   21.372803   24.075111   21.523981
   5 H     1.0000    0     1.008   23.149145   21.240522   21.807440
   6 C     6.0000    0    12.011   21.202727   21.731851   18.122474
   7 H     1.0000    0     1.008   22.790097   22.752303   17.215405
   8 H     1.0000    0     1.008   19.596460   22.752303   17.650042
   9 C     6.0000    0    12.011   21.070446   19.048439   17.158713
  10 H     1.0000    0     1.008   21.032652   17.876809   18.840570
  11 H     1.0000    0     1.008   22.620022   18.651597   15.835905
  12 O     8.0000    0    15.999   18.764981   18.557111   16.005980
  13 H     1.0000    0     1.008   18.594905   16.686282   15.987083
  14 O     8.0000    0    15.999   19.879919   19.256309   24.471953
  15 H     1.0000    0     1.008   18.424830   18.273652   24.925488
  16 O     8.0000    0    15.999   21.788542   25.549097   12.377706
  17 H     1.0000    0     1.008   22.223179   25.511303   10.544672
  18 H     1.0000    0     1.008   21.278316   23.772755   12.623371
  19 O     8.0000    0    15.999   16.270542   27.268748   22.884583
  20 H     1.0000    0     1.008   16.894152   26.664036   24.415262
  21 H     1.0000    0     1.008   17.215405   28.780529   22.449946
  22 O     8.0000    0    15.999   24.660926   15.930391   22.827892
  23 H     1.0000    0     1.008   25.908145   14.758761   23.432604
  24 H     1.0000    0     1.008   23.772755   16.761871   24.188495
  25 O     8.0000    0    15.999   20.409042   29.555317   20.144481
  26 H     1.0000    0     1.008   21.958618   29.215166   19.275207
  27 H     1.0000    0     1.008   20.579118   31.331659   20.257864
  28 O     8.0000    0    15.999   19.823227   12.434398   11.451740
  29 H     1.0000    0     1.008   18.935056   12.850138   13.001316
  30 H     1.0000    0     1.008   20.975960   13.851693   10.790336
  31 O     8.0000    0    15.999   28.062433   12.113145   24.604234
  32 H     1.0000    0     1.008   29.555317   12.869035   25.322330
  33 H     1.0000    0     1.008   28.421481   12.075350   22.733405
  34 O     8.0000    0    15.999   25.681378   24.793207   24.812104
  35 H     1.0000    0     1.008   24.434159   25.964837   24.075111
  36 H     1.0000    0     1.008   26.777419   23.942830   23.583782
  37 O     8.0000    0    15.999   18.311446   13.284775   17.026432
  38 H     1.0000    0     1.008   16.724076   12.396603   17.139816
  39 H     1.0000    0     1.008   19.483076   12.509987   18.122474
  40 O     8.0000    0    15.999   27.627796   22.374357   20.862577
  41 H     1.0000    0     1.008   27.325440   20.862577   19.879919
  42 H     1.0000    0     1.008   26.890803   23.678268   19.936611
  43 O     8.0000    0    15.999   20.957063   12.963521   28.043536
  44 H     1.0000    0     1.008   19.653152   14.002871   27.155365
  45 H     1.0000    0     1.008   22.355460   13.983973   27.722282
  46 O     8.0000    0    15.999   27.911255   18.481522   12.906829
  47 H     1.0000    0     1.008   27.533310   17.196508   14.172946
  48 H     1.0000    0     1.008   26.834111   18.084679   11.508432
  49 O     8.0000    0    15.999   24.849899   17.045330   27.930152
  50 H     1.0000    0     1.008   24.094008   17.971296   29.347447
  51 H     1.0000    0     1.008   26.512858   16.535104   28.648248
  52 O     8.0000    0    15.999   23.413707   16.383926   10.695850
  53 H     1.0000    0     1.008   22.620022   18.009090   10.317905
  54 H     1.0000    0     1.008   23.753858   15.722521    9.013994
  55 O     8.0000    0    15.999   30.122235   18.387035   24.944385
  56 H     1.0000    0     1.008   30.859228   19.917713   24.396364
  57 H     1.0000    0     1.008   28.364789   18.821672   24.434159
  58 O     8.0000    0    15.999   14.815453   21.467289   15.080015
  59 H     1.0000    0     1.008   16.081569   20.371248   15.798110
  60 H     1.0000    0     1.008   14.418610   22.582227   16.516206
  61 O     8.0000    0    15.999   21.788542   24.169597    6.840809
  62 H     1.0000    0     1.008   22.260974   22.431049    6.973089
  63 H     1.0000    0     1.008   21.108241   24.415262    5.140055
  64 O     8.0000    0    15.999   16.497309   13.020213    7.464418
  65 H     1.0000    0     1.008   17.536659   13.265877    8.976199
  66 H     1.0000    0     1.008   15.268987   14.399713    7.558905
  67 O     8.0000    0    15.999   19.086234   34.695372   19.520871
  68 H     1.0000    0     1.008   17.498864   35.073317   18.594905
  69 H     1.0000    0     1.008   19.672049   36.263845   20.238967
  70 O     8.0000    0    15.999   16.742974    7.351035   12.680062
  71 H     1.0000    0     1.008   17.668939    8.201411   11.376151
  72 H     1.0000    0     1.008   16.157158    5.744767   11.999761
  73 O     8.0000    0    15.999   22.242077   28.818324   25.284536
  74 H     1.0000    0     1.008   22.053104   29.423036   23.583782
  75 H     1.0000    0     1.008   22.260974   30.141132   26.437269
  76 O     8.0000    0    15.999   24.679823    9.788781   13.549336
  77 H     1.0000    0     1.008   23.281426   10.544672   12.680062
  78 H     1.0000    0     1.008   24.056214    8.976199   15.136706
  79 O     8.0000    0    15.999   22.431049   12.226528   20.503529
  80 H     1.0000    0     1.008   22.941275   13.870590   21.335008
  81 H     1.0000    0     1.008   21.750748   11.300562   21.901926
  82 O     8.0000    0    15.999   12.150939   29.819878   24.018419
  83 H     1.0000    0     1.008   12.302117   31.067098   22.733405
  84 H     1.0000    0     1.008   13.379261   28.723837   23.319220
  85 O     8.0000    0    15.999   15.968186   26.134912   12.925727
  86 H     1.0000    0     1.008   15.174501   24.604234   13.379261
  87 H     1.0000    0     1.008   17.687837   25.700275   12.358809
  88 O     8.0000    0    15.999   13.587131   24.755412   18.897261
  89 H     1.0000    0     1.008   13.228083   24.188495   20.579118
  90 H     1.0000    0     1.008   15.023323   25.851454   19.142926
  91 O     8.0000    0    15.999   24.188495   28.175817   16.629590
  92 H     1.0000    0     1.008   23.734960   26.947495   15.287884
  93 H     1.0000    0     1.008   25.964837   28.194714   17.045330
  94 O     8.0000    0    15.999   24.490851   28.723837    7.048678
  95 H     1.0000    0     1.008   23.659371   26.985289    7.143165
  96 H     1.0000    0     1.008   24.264084   29.063988    5.291233
  97 O     8.0000    0    15.999   16.535104   14.909939   25.265638
  98 H     1.0000    0     1.008   15.609138   13.965076   23.980625
  99 H     1.0000    0     1.008   14.909939   15.703624   26.059323
 100 O     8.0000    0    15.999   28.024639   17.687837   18.878364
 101 H     1.0000    0     1.008   26.607344   16.554001   19.596460
 102 H     1.0000    0     1.008   29.555317   16.894152   19.558665
 103 O     8.0000    0    15.999   22.279871   32.937927   15.439063
 104 H     1.0000    0     1.008   20.957063   33.467050   16.742974
 105 H     1.0000    0     1.008   22.808994   31.293865   16.062672
 106 O     8.0000    0    15.999   19.917713   20.598015   10.922617
 107 H     1.0000    0     1.008   19.237412   19.728741   12.339912
 108 H     1.0000    0     1.008   18.632700   20.975960    9.769884
 109 Q     0.6645    0     0.000   17.650042    9.694295   32.087550
 110 Q     0.6645    0     0.000   20.409042    8.806124   32.427700
 111 Q    -1.3290    0     0.000   18.897261    8.976199   32.843440
 112 Q     0.6645    0     0.000    4.497548   10.922617   13.549336
 113 Q     0.6645    0     0.000    3.307021   13.473747   14.191843
 114 Q    -1.3290    0     0.000    4.232987   12.472192   13.341467
 115 Q     0.6645    0     0.000   20.673604    7.540007   25.171152
 116 Q     0.6645    0     0.000   20.257864   10.336802   25.908145
 117 Q    -1.3290    0     0.000   20.560220    9.146274   24.906590
 118 Q     0.6645    0     0.000    9.713192   29.498625   10.147829
 119 Q     0.6645    0     0.000    8.031336   30.840331   12.339912
 120 Q    -1.3290    0     0.000    8.654946   30.613563   10.847028
 121 Q     0.6645    0     0.000   11.281665   10.487980   37.435475
 122 Q     0.6645    0     0.000   11.432843   12.491090   39.306304
 123 Q    -1.3290    0     0.000   10.676953   11.584021   38.285851
 124 Q     0.6645    0     0.000   27.741180    4.478651   20.938166
 125 Q     0.6645    0     0.000   26.134912    6.746322   21.731851
 126 Q    -1.3290    0     0.000   27.457721    5.971535   21.240522
 127 Q     0.6645    0     0.000   11.659610   20.900371   25.284536
 128 Q     0.6645    0     0.000    9.694295   21.618467   27.325440
 129 Q    -1.3290    0     0.000   11.111590   21.467289   26.682933
 130 Q     0.6645    0     0.000   38.285851   22.903481   26.153810
 131 Q     0.6645    0     0.000   38.644899   23.489296   23.319220
 132 Q    -1.3290    0     0.000   38.833872   23.734960   24.868796
 133 Q     0.6645    0     0.000   13.360364   35.621338   12.113145
 134 Q     0.6645    0     0.000   13.435953   36.736276   14.796556
 135 Q    -1.3290    0     0.000   12.774549   35.980386   13.549336
 136 Q     0.6645    0     0.000    5.329028   25.227844   23.111351
 137 Q     0.6645    0     0.000    2.267671   25.756967   23.659371
 138 Q    -1.3290    0     0.000    3.628274   25.057769   22.979070
 139 Q     0.6645    0     0.000   34.109557   14.550891   31.690707
 140 Q     0.6645    0     0.000   37.170913   14.135151   31.445043
 141 Q    -1.3290    0     0.000   35.696927   14.928836   31.728502
 142 Q     0.6645    0     0.000   14.229638   37.397680   18.349241
 143 Q     0.6645    0     0.000   16.856357   38.852769   17.706734
 144 Q    -1.3290    0     0.000   15.495754   37.851214   17.461069
 145 Q     0.6645    0     0.000   13.284775    1.473986   19.747638
 146 Q     0.6645    0     0.000   13.492645   -0.302356   22.166488
 147 Q    -1.3290    0     0.000   13.587131    1.114938   21.316111
 148 Q     0.6645    0     0.000   11.772994   33.920584   19.558665
 149 Q     0.6645    0     0.000   13.530439   32.144242   18.216960
 150 Q    -1.3290    0     0.000   12.887932   32.843440   19.464179
 151 Q     0.6645    0     0.000   29.045091   18.122474    1.606267
 152 Q     0.6645    0     0.000   29.479728   19.936611   -0.736993
 153 Q    -1.3290    0     0.000   28.780529   19.388590    0.661404
 154 Q     0.6645    0     0.000   33.315872   33.126899   28.856118
 155 Q     0.6645    0     0.000   35.583543   34.638680   28.345892
 156 Q    -1.3290    0     0.000   34.752064   33.259180   28.459276
 157 Q     0.6645    0     0.000   15.722521   28.156919   32.730057
 158 Q     0.6645    0     0.000   13.549336   28.988399   31.161584
 159 Q    -1.3290    0     0.000   14.210741   28.175817   32.352111
 160 Q     0.6645    0     0.000   10.261213   13.606028    9.278555
 161 Q     0.6645    0     0.000   11.376151   14.796556   11.602918
 162 Q    -1.3290    0     0.000   10.620261   13.662720   10.790336
 163 Q     0.6645    0     0.000   39.948810   25.832556   18.084679
 164 Q     0.6645    0     0.000   37.397680   26.607344   19.539768
 165 Q    -1.3290    0     0.000   38.947256   26.153810   19.331898
 166 Q     0.6645    0     0.000   28.667145   22.790097    2.097596
 167 Q     0.6645    0     0.000   28.119125   24.358570    4.421959
 168 Q    -1.3290    0     0.000   28.459276   24.131803    2.891281
 169 Q     0.6645    0     0.000    6.840809   12.661165    6.670733
 170 Q     0.6645    0     0.000    9.429733   12.604473    5.083363
 171 Q    -1.3290    0     0.000    8.106925   13.284775    5.839254
 172 Q     0.6645    0     0.000   28.081330   36.339434   26.815214
 173 Q     0.6645    0     0.000   29.177372   33.882790   25.567995
 174 Q    -1.3290    0     0.000   29.063988   35.470160   25.889248
 175 Q     0.6645    0     0.000    6.103815   35.130009   29.933262
 176 Q     0.6645    0     0.000    8.976199   34.317427   30.311207
 177 Q    -1.3290    0     0.000    7.653391   35.148906   29.630906
 178 Q     0.6645    0     0.000   24.736515   12.661165    4.781007
 179 Q     0.6645    0     0.000   26.871906   14.834350    5.102261
 180 Q    -1.3290    0     0.000   25.360125   14.116254    5.272336
 181 Q     0.6645    0     0.000   19.294104   41.422797   11.810788
 182 Q     0.6645    0     0.000   16.629590   41.536180   10.771439
 183 Q    -1.3290    0     0.000   17.839015   40.836982   11.565124
 184 Q     0.6645    0     0.000   28.100228    2.796795   15.665830
 185 Q     0.6645    0     0.000   28.383687    5.650281   15.798110
 186 Q    -1.3290    0     0.000   28.326995    4.308576   15.061117
 187 Q     0.6645    0     0.000   36.811865   15.835905   16.931946
 188 Q     0.6645    0     0.000   35.356776   15.779213   19.539768
 189 Q    -1.3290    0     0.000   36.660687   15.854802   18.557111
 190 Q     0.6645    0     0.000   33.769406   35.262290   20.824782
[...]
 356   Q   :   -0.080016580   -0.293646049    0.085518794
 357   Q   :    0.237754312    0.058562172   -0.132135682
 358   Q   :   -0.159453283    0.234644938    0.043990386
 359   Q   :   -0.103078746   -0.234672454    0.140912316
 360   Q   :   -0.132703819    0.158505930   -0.190618993
 361   Q   :    0.230639157    0.089940445    0.053398539
 362   Q   :   -0.089981338   -0.243265822   -0.120492811
 363   Q   :    0.053292418    0.036495088    0.244292455
 364   Q   :    0.023959100    0.206462159   -0.134833395
 365   Q   :   -0.193659975   -0.176377705   -0.067730468
 366   Q   :    0.008462330    0.247222015    0.011259999
 367   Q   :    0.175181931   -0.072658033    0.068798677
 368   Q   :   -0.257959780   -0.146135129    0.013564205
 369   Q   :    0.222003693   -0.063716987   -0.215990135
 370   Q   :    0.038358368    0.208457757    0.202012736
 371   Q   :   -0.079784770   -0.185267442    0.189167093
 372   Q   :   -0.018005605    0.277359638    0.028845254
 373   Q   :    0.097016533   -0.095789681   -0.211610786
 374   Q   :    0.217559779    0.133443262   -0.125552172
 375   Q   :   -0.003865207   -0.137629981    0.261045434
 376   Q   :   -0.218247569    0.006454374   -0.144676388
 377   Q   :   -0.224438007   -0.072227556   -0.164627566
 378   Q   :   -0.014964270    0.152227062    0.254643637
 379   Q   :    0.236651693   -0.077336499   -0.088724585
 380   Q   :    0.167391859    0.018346522    0.207252432
 381   Q   :   -0.272170636   -0.034058671   -0.002274527
 382   Q   :    0.104772193    0.012788135   -0.208914079
 383   Q   :   -0.266620120   -0.073845218    0.002660706
 384   Q   :    0.165080182   -0.018592727   -0.202049448
 385   Q   :    0.096698586    0.085250017    0.198010290
 386   Q   :   -0.031148348    0.068251836    0.253714339
 387   Q   :    0.081539720   -0.260050803   -0.118559791
 388   Q   :   -0.041867198    0.195642200   -0.138598356
 389   Q   :   -0.181706472   -0.186017809   -0.092111893
 390   Q   :    0.166090301    0.162386850   -0.166251589
 391   Q   :    0.019747635    0.035788784    0.247833075
 392   Q   :    0.246125618   -0.080339218    0.113954284
 393   Q   :   -0.181480285   -0.145072083   -0.102076986
 394   Q   :   -0.066855721    0.212330603   -0.003590969
 395   Q   :   -0.173410183    0.048428919    0.229925328
 396   Q   :    0.038101703    0.249671375   -0.189733181
 397   Q   :    0.145476300   -0.295488507   -0.037487556
 398   Q   :   -0.192016137   -0.031756779    0.208646218
 399   Q   :    0.018673581   -0.091995361   -0.245006718
 400   Q   :    0.168343492    0.126903409    0.044031012
 401   Q   :    0.042439628   -0.295955753    0.022876629
 402   Q   :    0.107441147    0.224830450    0.164155332
 403   Q   :   -0.146662524    0.072778573   -0.183252098
 404   Q   :   -0.101099598    0.147780262   -0.234350137
 405   Q   :    0.065324325   -0.278550195   -0.009055498
 406   Q   :    0.023149190    0.132428445    0.231912721
 407   Q   :    0.083599851    0.216730796   -0.156131965
 408   Q   :   -0.196889070    0.019019889    0.203056494
 409   Q   :    0.119575233   -0.245978234   -0.057157384
 410   Q   :    0.113929376    0.232958529   -0.190067667
 411   Q   :    0.032478218    0.038729928    0.317752015
 412   Q   :   -0.149879732   -0.261198966   -0.127697952
 413   Q   :   -0.101979250   -0.229920903   -0.106063655
 414   Q   :    0.265897208    0.071867616   -0.019998322
 415   Q   :   -0.173426357    0.170884630    0.129467591
 416   Q   :    0.052107096   -0.274851457    0.035913690
 417   Q   :   -0.222866156    0.115857904   -0.098105738
 418   Q   :    0.167573092    0.149931989    0.057128857
 419   Q   :    0.129595691   -0.018309445    0.269753121
 420   Q   :   -0.223516768    0.155566700   -0.063231029
 421   Q   :    0.098346701   -0.134056519   -0.200918389
 422   Q   :   -0.027113398   -0.271714047    0.041500603
 423   Q   :   -0.130820911    0.216019602    0.098179478
 424   Q   :    0.145966989    0.050756568   -0.134120950
 425   Q   :   -0.104554049   -0.218199980   -0.150057791
 426   Q   :    0.233509170   -0.007571477    0.168325034
 427   Q   :   -0.121400688    0.212762919   -0.017876547
 428   Q   :   -0.062352573   -0.164253129   -0.268348768
 429   Q   :    0.173680034   -0.208295743    0.198335751
 430   Q   :   -0.118464756    0.376566042    0.064001484
 431   Q   :    0.102464983    0.054080828   -0.224928282
 432   Q   :   -0.250583804   -0.081949639    0.063807031
 433   Q   :    0.156833536    0.038514318    0.154140396
 434   Q   :   -0.021244797   -0.080360558    0.237662893
 435   Q   :    0.215508454   -0.066736530   -0.181122263
 436   Q   :   -0.193221656    0.145569629   -0.051109690
 437   Q   :   -0.071274518    0.246785168    0.013122551
 438   Q   :   -0.069752316   -0.173257467    0.215347387
 439   Q   :    0.131988633   -0.079517853   -0.218882665
 440   Q   :    0.081932647   -0.211404880    0.147602992
 441   Q   :    0.031662688    0.261564743    0.053986999
 442   Q   :   -0.116986956   -0.031444011   -0.194869750
 443   Q   :   -0.171066883   -0.211165553   -0.016539651
 444   Q   :    0.077571028    0.133537121   -0.211550754
 445   Q   :    0.083381429    0.069508497    0.231421366
 446   Q   :   -0.018077916    0.284849553    0.102369203
 447   Q   :   -0.239575032   -0.120980758   -0.124599963
 448   Q   :    0.254646816   -0.159326316    0.029733875
 449   Q   :    0.025698657    0.278813604   -0.069535363
 450   Q   :   -0.019332479   -0.101252079    0.244872563
 451   Q   :    0.008148877   -0.176411243   -0.182642010
 452   Q   :    0.078635971    0.132729762    0.196731165
 453   Q   :    0.037918616   -0.000804328   -0.249646586
 454   Q   :   -0.110488598   -0.122213074    0.048604906
 455   Q   :   -0.109148496   -0.108520876    0.235214829
 456   Q   :   -0.060645011   -0.090756413   -0.274934517
 457   Q   :    0.154368259    0.194254397    0.045803972
 458   Q   :    0.083576091   -0.255349628   -0.019315908
 459   Q   :   -0.241779379    0.090533586   -0.107157488
 460   Q   :    0.156401558    0.168308595    0.133952909
 461   Q   :   -0.179408648    0.128067949   -0.137590194
 462   Q   :    0.115179159    0.111220810    0.234908041
 463   Q   :    0.071693725   -0.253801837   -0.094062942
 464   Q   :    0.309041453   -0.012872145   -0.083281089
 465   Q   :   -0.180263069   -0.140457295   -0.201296289
 466   Q   :   -0.129547186    0.149651902    0.277596905
 467   Q   :   -0.219063902   -0.023651125    0.156125616
 468   Q   :    0.160297645   -0.195129642   -0.152999727
 469   Q   :    0.063625651    0.223406219    0.000479471
 470   Q   :    0.019055507   -0.016926470    0.266300478
 471   Q   :    0.042827931   -0.166780980   -0.200276607
 472   Q   :   -0.065806960    0.186448966   -0.067794896
 473   Q   :    0.199823518    0.041785135    0.139250250
 474   Q   :   -0.108070520   -0.235670483   -0.098626639
 475   Q   :   -0.092830488    0.188696574   -0.044317034
 476   Q   :   -0.011826493    0.121565500    0.232793603
 477   Q   :   -0.187659035   -0.059668313   -0.192666688
 478   Q   :    0.195929346   -0.055429151   -0.040630654
 479   Q   :    0.113381465    0.142553297   -0.175003465
 480   Q   :   -0.226132007   -0.121892911    0.019244668
 481   Q   :    0.097992048   -0.027825046    0.163275615
 482   Q   :   -0.294089122   -0.088677279    0.030892658
 483   Q   :    0.084801181    0.227666886    0.051150741
 484   Q   :    0.215006525   -0.152663265   -0.068935999
 485   Q   :    0.112893204    0.244351088   -0.111509195
 486   Q   :   -0.068909312   -0.210897495   -0.190951191
 487   Q   :   -0.035524055   -0.036708726    0.288042071
 488   Q   :    0.236077168    0.163126561    0.056942532
 489   Q   :   -0.229658838    0.077748661    0.044043166
 490   Q   :   -0.005894170   -0.249742298   -0.095741094
 491   Q   :   -0.256725374    0.046722947    0.016887844
 492   Q   :    0.128228824   -0.233609785    0.001164867
 493   Q   :    0.134819341    0.186267803   -0.009000906
 494   Q   :    0.234035473   -0.130783569   -0.088112459
 495   Q   :   -0.136560892    0.166160280   -0.134932556
 496   Q   :   -0.083082404   -0.042401652    0.214377475
 497   Q   :   -0.033592205   -0.067663451    0.275228066
 498   Q   :    0.147865574   -0.071866284   -0.198749120
 499   Q   :   -0.128768013    0.146968308   -0.083450004
 500   Q   :    0.289380306   -0.031292482    0.029112941
 501   Q   :   -0.202738378   -0.111854363    0.158153560
 502   Q   :   -0.082325194    0.147718021   -0.194364015
 503   Q   :    0.006077767    0.031149177    0.298898308
 504   Q   :    0.128101381    0.164281477   -0.166518692
 505   Q   :   -0.139112921   -0.202166041   -0.132627579
 506   Q   :    0.084218815    0.277507853    0.037154922
 507   Q   :    0.104296724   -0.202460674    0.108412567
 508   Q   :   -0.186684370   -0.078662761   -0.153330842
 509   Q   :   -0.142513163    0.215865085    0.034349055
 510   Q   :    0.236686247   -0.039001180   -0.094336474
 511   Q   :   -0.075778432   -0.180604159    0.063258967
 512   Q   :    0.029445453    0.225395818    0.178912767
 513   Q   :    0.195976982   -0.206374885   -0.012363361
 514   Q   :   -0.229182336   -0.017573247   -0.164885964
 515   Q   :   -0.152155616   -0.202313459   -0.068142839
 516   Q   :   -0.055681513    0.271376406   -0.000856560
 517   Q   :    0.204573855   -0.071312458    0.063499063
 518   Q   :   -0.163335939    0.177914360    0.111821322
 519   Q   :   -0.096494936   -0.248158710   -0.157186271
 520   Q   :    0.256566373    0.062457959    0.038567380
 521   Q   :    0.189419592    0.150519122   -0.128461366
 522   Q   :   -0.062003820   -0.232358280   -0.054409138
 523   Q   :   -0.117915590    0.083859245    0.187058864
 524   Q   :   -0.008137267   -0.205058264   -0.149512083
 525   Q   :    0.176023739    0.157911822    0.062832273
 526   Q   :   -0.172372780    0.041040569    0.086768204
 527   Q   :   -0.201210757    0.231734635    0.069470819
 528   Q   :   -0.093461214   -0.274929875   -0.102253592
 529   Q   :    0.298013216    0.035562307    0.026601687
 530   Q   :   -0.232141468   -0.043690091   -0.153044764
 531   Q   :    0.168856283    0.220941972   -0.009195394
 532   Q   :    0.052895310   -0.180688571    0.153718552
 533   Q   :   -0.038615258    0.041328200    0.268907531
 534   Q   :   -0.184364972    0.074005773   -0.219117422
 535   Q   :    0.228355265   -0.122956388   -0.064989665
 536   Q   :    0.167665688   -0.148838671   -0.145470485
 537   Q   :    0.088715239    0.159690987    0.259674147
 538   Q   :   -0.263331193    0.003258656   -0.115032862
 539   Q   :   -0.251350993    0.100082762   -0.128163717
 540   Q   :    0.228009120   -0.098528090   -0.158501297
 541   Q   :    0.016588264    0.008743363    0.288468451
 542   Q   :    0.070463505    0.203508458   -0.174027946
 543   Q   :   -0.250111647   -0.072699829    0.081114236
 544   Q   :    0.181631888   -0.130010282    0.090200544
 545   Q   :    0.030903604    0.246088104    0.005845262
 546   Q   :   -0.149245174   -0.176720388    0.168405038
 547   Q   :    0.111391033   -0.063184635   -0.163576662
 548   Q   :   -0.236203780    0.146139579   -0.095396108
 549   Q   :    0.210068068   -0.073804629   -0.189602271
 550   Q   :    0.023432449   -0.077714671    0.298379659
 551   Q   :   -0.146608701   -0.086947072    0.268400924
 552   Q   :   -0.051543048    0.256492457   -0.155658178
 553   Q   :    0.193673594   -0.179797657   -0.113783596
 554   Q   :   -0.170481747    0.006410133   -0.203708285
 555   Q   :    0.208570590    0.135998717    0.063862880
 556   Q   :   -0.037355304   -0.149761212    0.141953358
 557   Q   :    0.180170674   -0.202774561    0.006368090
 558   Q   :   -0.024267125    0.221631346    0.204944820
 559   Q   :   -0.160235001   -0.024885424   -0.216837858
 560   Q   :    0.112555515   -0.193654289    0.210734202
 561   Q   :    0.077662181    0.259474791   -0.032754052
 562   Q   :   -0.186778668   -0.067982960   -0.178357614
 563   Q   :   -0.030001706   -0.267155557   -0.110758484
 564   Q   :    0.220221497    0.160741254   -0.024800985
 565   Q   :   -0.187220020    0.112098811    0.126611886
 566   Q   :   -0.231468196    0.137741424   -0.092718290
 567   Q   :    0.017479055   -0.184482093    0.203765588
 568   Q   :    0.215469666    0.059581009   -0.114119336
 569   Q   :   -0.218012647   -0.083285454    0.188025065
 570   Q   :    0.267942403   -0.127807838   -0.045263512
 571   Q   :   -0.049354159    0.204420205   -0.139431420
 572   Q   :    0.277965437    0.041715039    0.069441523
 573   Q   :   -0.197400204   -0.069825150    0.144551063
 574   Q   :   -0.071328486    0.029434515   -0.213065871
 575   Q   :    0.126826050   -0.110787942   -0.213894885
 576   Q   :    0.100410501   -0.034485931    0.274967801
 577   Q   :   -0.230376245    0.141958639   -0.052631135
 578   Q   :   -0.211470801    0.097677865   -0.137520257
 579   Q   :    0.142251010   -0.214708858   -0.005279643
 580   Q   :    0.063166843    0.120718640    0.138524725
 581   Q   :   -0.097271813    0.259380023    0.126925036
 582   Q   :   -0.114791154   -0.080321561   -0.284223516
 583   Q   :    0.205384632   -0.175782920    0.151443704
 584   Q   :    0.063607182    0.245278204   -0.115391864
 585   Q   :    0.129425647   -0.105182413    0.243661602
 586   Q   :   -0.191292006   -0.136261847   -0.132875184
 587   Q   :   -0.089912598   -0.124184915    0.270691680
 588   Q   :    0.018049638    0.345842825   -0.037665501
 589   Q   :    0.072281507   -0.215228935   -0.236156875
 590   Q   :    0.167859976    0.080075075    0.237155031
 591   Q   :   -0.091215974    0.214473189   -0.214488252
 592   Q   :   -0.071709626   -0.289638926   -0.025066439
 593   Q   :   -0.200870736   -0.020477105    0.228481275
 594   Q   :    0.197098371   -0.231781157   -0.088237188
 595   Q   :    0.004961798    0.255149088   -0.145776366
 596   Q   :    0.172839791   -0.194926183   -0.011927884
 597   Q   :   -0.077423835    0.156716834    0.234515899
 598   Q   :   -0.092726996    0.045595923   -0.215481130
 599   Q   :    0.263990770    0.052285450    0.106187956
 600   Q   :   -0.150540629   -0.265015571    0.036150715
 601   Q   :   -0.116912934    0.211040979   -0.141336357
 602   Q   :    0.170563721    0.088148120    0.240040372
 603   Q   :   -0.124007300   -0.284019337   -0.012488951
 604   Q   :   -0.038573944    0.188402106   -0.225779862
 605   Q   :    0.077989905    0.112324284    0.249145269
 606   Q   :   -0.171337923    0.098986038   -0.193037364
 607   Q   :    0.103201468   -0.206690884   -0.061637202
 608   Q   :    0.127956504    0.193616514    0.184471894
 609   Q   :   -0.114547057    0.044735980   -0.269576686
 610   Q   :   -0.014654283   -0.231517855    0.085707386
 611   Q   :    0.155868161    0.233653429   -0.050663416
 612   Q   :   -0.217504300   -0.062606578   -0.173533739
 613   Q   :    0.065850974   -0.162131366    0.223937591
 614   Q   :    0.156028928    0.190812709    0.115491023
 615   Q   :   -0.225474075   -0.021617792   -0.046952656
 616   Q   :    0.072521729   -0.169147512   -0.070674244
 617   Q   :   -0.078009687   -0.254654424   -0.086115441
 618   Q   :    0.118188483    0.228333062   -0.151708577
 619   Q   :   -0.040843058    0.024697129    0.249346378
 620   Q   :    0.028007601   -0.235838561   -0.104364930
 621   Q   :    0.130905803    0.136161279    0.182415665
 622   Q   :   -0.149752097    0.107123466   -0.064874532
 623   Q   :    0.204430737    0.060841695    0.181100063
 624   Q   :   -0.075667282   -0.237908828   -0.101922226
 625   Q   :   -0.116703113    0.170865058   -0.080507367
 626   Q   :    0.028115444   -0.084816949   -0.256029697
 627   Q   :    0.065971842   -0.092628380    0.224772346
 628   Q   :   -0.102118252    0.180035021    0.035509557
 629   Q   :   -0.074955200   -0.164835118   -0.214574035
 630   Q   :   -0.122353489    0.265251547    0.099467569
 631   Q   :    0.195763737   -0.101539466    0.115008420
 632   Q   :    0.097710736    0.089129326   -0.243403855
 633   Q   :    0.002447915   -0.280532790    0.075293672
 634   Q   :   -0.099451440    0.200882192    0.172385082
 635   Q   :    0.186250335   -0.018597013    0.183050232
 636   Q   :   -0.031892049    0.166499628   -0.194556300
 637   Q   :   -0.144972252   -0.149897468    0.016865642
 638   Q   :   -0.154737959   -0.173459476    0.172397561
 639   Q   :    0.236246895    0.127174787    0.069975271
 640   Q   :   -0.072709818    0.046784808   -0.242978486
 641   Q   :   -0.145938820   -0.169045953   -0.208568644
 642   Q   :   -0.055173329    0.004880143    0.273626930
 643   Q   :    0.188819325    0.163017253   -0.065982380
 644   Q   :    0.000191489    0.046061696    0.248066746
 645   Q   :    0.160886967   -0.147632314   -0.162552041
 646   Q   :   -0.169582159    0.088526065   -0.091876638

Difference to translation invariance:
           :   -0.0006707524    0.0008129099    0.0005005666

Difference to rotation invariance:
           :   -0.0008566267   -0.0256883411    0.0295512646

Norm of the cartesian gradient     ...    6.3676681651
RMS gradient                       ...    0.1446450370
MAX gradient                       ...    0.3765660422

-------
TIMINGS
-------

Total SCF gradient time            ...      216.457 sec

One electron gradient       ....      28.317 sec  ( 13.1%)
RI-J Coulomb gradient       ....      11.597 sec  (  5.4%)
COSX gradient               ....     134.058 sec  ( 61.9%)
XC gradient                 ....      17.630 sec  (  8.1%)

Maximum memory used throughout the entire SCFGRAD-calculation: 840.6 MB

                            ***************************************
                            *     ORCA property calculations      *
                            ***************************************

                                    ---------------------
                                    Active property flags
                                    ---------------------
   (+) Dipole Moment


------------------------------------------------------------------------------
                       ORCA ELECTRIC PROPERTIES CALCULATION
------------------------------------------------------------------------------

Dipole Moment Calculation                       ... on
Quadrupole Moment Calculation                   ... off
Polarizability Calculation                      ... off
GBWName                                         ... final044.orca.gbw
Electron density                                ... final044.orca.scfp
The origin for moment calculation is the CENTER OF MASS  = (21.278331, 20.627478 18.104998)

-------------
DIPOLE MOMENT
-------------
                                X             Y             Z
Electronic contribution:     -0.77367      -2.20906       1.16211
Nuclear contribution   :     -7.47695      -8.84572      -1.88337
                        -----------------------------------------
Total Dipole Moment    :     -8.25062     -11.05477      -0.72126
                        -----------------------------------------
Magnitude (a.u.)       :     13.81308
Magnitude (Debye)      :     35.11005



--------------------
Rotational spectrum 
--------------------
 
Rotational constants in cm-1:     0.001740     0.001455     0.001129 
Rotational constants in MHz :    52.154298    43.625754    33.858054 

 Dipole components along the rotational axes: 
x,y,z [a.u.] :     9.783386    -2.051555     9.532971 
x,y,z [Debye]:    24.867392    -5.214638    24.230888 

 

Timings for individual modules:

Sum of individual times         ...      926.566 sec (=  15.443 min)
GTO integral calculation        ...       13.783 sec (=   0.230 min)   1.5 %
SCF iterations                  ...      691.754 sec (=  11.529 min)  74.7 %
SCF Gradient evaluation         ...      221.029 sec (=   3.684 min)  23.9 %
                             ****ORCA TERMINATED NORMALLY****
TOTAL RUN TIME: 0 days 0 hours 15 minutes 34 seconds 697 msec
