
                                 *****************
                                 * O   R   C   A *
                                 *****************

                                            #,                                       
                                            ###                                      
                                            ####                                     
                                            #####                                    
                                            ######                                   
                                           ########,                                 
                                     ,,################,,,,,                         
                               ,,#################################,,                 
                          ,,##########################################,,             
                       ,#########################################, ''#####,          
                    ,#############################################,,   '####,        
                  ,##################################################,,,,####,       
                ,###########''''           ''''###############################       
              ,#####''   ,,,,##########,,,,          '''####'''          '####       
            ,##' ,,,,###########################,,,                        '##       
           ' ,,###''''                  '''############,,,                           
         ,,##''                                '''############,,,,        ,,,,,,###''
      ,#''                                            '''#######################'''  
     '                                                          ''''####''''         
             ,#######,   #######,   ,#######,      ##                                
            ,#'     '#,  ##    ##  ,#'     '#,    #''#        ######   ,####,        
            ##       ##  ##   ,#'  ##            #'  '#       #        #'  '#        
            ##       ##  #######   ##           ,######,      #####,   #    #        
            '#,     ,#'  ##    ##  '#,     ,#' ,#      #,         ##   #,  ,#        
             '#######'   ##     ##  '#######'  #'      '#     #####' # '####'        



                  #######################################################
                  #                        -***-                        #
                  #          Department of theory and spectroscopy      #
                  #    Directorship and core code : Frank Neese         #
                  #        Max Planck Institute fuer Kohlenforschung    #
                  #                Kaiser Wilhelm Platz 1               #
                  #                 D-45470 Muelheim/Ruhr               #
                  #                      Germany                        #
                  #                                                     #
                  #                  All rights reserved                #
                  #                        -***-                        #
                  #######################################################


                         Program Version 5.0.3 -  RELEASE  -


 With contributions from (in alphabetic order):
   Daniel Aravena         : Magnetic Suceptibility
   Michael Atanasov       : Ab Initio Ligand Field Theory (pilot matlab implementation)
   Alexander A. Auer      : GIAO ZORA, VPT2 properties, NMR spectrum
   Ute Becker             : Parallelization
   Giovanni Bistoni       : ED, misc. LED, open-shell LED, HFLD
   Martin Brehm           : Molecular dynamics
   Dmytro Bykov           : SCF Hessian
   Vijay G. Chilkuri      : MRCI spin determinant printing, contributions to CSF-ICE
   Dipayan Datta          : RHF DLPNO-CCSD density
   Achintya Kumar Dutta   : EOM-CC, STEOM-CC
   Dmitry Ganyushin       : Spin-Orbit,Spin-Spin,Magnetic field MRCI
   Miquel Garcia          : C-PCM and meta-GGA Hessian, CC/C-PCM, Gaussian charge scheme
   Yang Guo               : DLPNO-NEVPT2, F12-NEVPT2, CIM, IAO-localization
   Andreas Hansen         : Spin unrestricted coupled pair/coupled cluster methods
   Benjamin Helmich-Paris : MC-RPA, TRAH-SCF, COSX integrals
   Lee Huntington         : MR-EOM, pCC
   Robert Izsak           : Overlap fitted RIJCOSX, COSX-SCS-MP3, EOM
   Marcus Kettner         : VPT2
   Christian Kollmar      : KDIIS, OOCD, Brueckner-CCSD(T), CCSD density, CASPT2, CASPT2-K
   Simone Kossmann        : Meta GGA functionals, TD-DFT gradient, OOMP2, MP2 Hessian
   Martin Krupicka        : Initial AUTO-CI
   Lucas Lang             : DCDCAS
   Marvin Lechner         : AUTO-CI (C++ implementation), FIC-MRCC
   Dagmar Lenk            : GEPOL surface, SMD
   Dimitrios Liakos       : Extrapolation schemes; Compound Job, initial MDCI parallelization
   Dimitrios Manganas     : Further ROCIS development; embedding schemes
   Dimitrios Pantazis     : SARC Basis sets
   Anastasios Papadopoulos: AUTO-CI, single reference methods and gradients
   Taras Petrenko         : DFT Hessian,TD-DFT gradient, ASA, ECA, R-Raman, ABS, FL, XAS/XES, NRVS
   Peter Pinski           : DLPNO-MP2, DLPNO-MP2 Gradient
   Christoph Reimann      : Effective Core Potentials
   Marius Retegan         : Local ZFS, SOC
   Christoph Riplinger    : Optimizer, TS searches, QM/MM, DLPNO-CCSD(T), (RO)-DLPNO pert. Triples
   Tobias Risthaus        : Range-separated hybrids, TD-DFT gradient, RPA, STAB
   Michael Roemelt        : Original ROCIS implementation
   Masaaki Saitow         : Open-shell DLPNO-CCSD energy and density
   Barbara Sandhoefer     : DKH picture change effects
   Avijit Sen             : IP-ROCIS
   Kantharuban Sivalingam : CASSCF convergence, NEVPT2, FIC-MRCI
   Bernardo de Souza      : ESD, SOC TD-DFT
   Georgi Stoychev        : AutoAux, RI-MP2 NMR, DLPNO-MP2 response
   Willem Van den Heuvel  : Paramagnetic NMR
   Boris Wezisla          : Elementary symmetry handling
   Frank Wennmohs         : Technical directorship


 We gratefully acknowledge several colleagues who have allowed us to
 interface, adapt or use parts of their codes:
   Stefan Grimme, W. Hujo, H. Kruse, P. Pracht,  : VdW corrections, initial TS optimization,
                  C. Bannwarth, S. Ehlert          DFT functionals, gCP, sTDA/sTD-DF
   Ed Valeev, F. Pavosevic, A. Kumar             : LibInt (2-el integral package), F12 methods
   Garnet Chan, S. Sharma, J. Yang, R. Olivares  : DMRG
   Ulf Ekstrom                                   : XCFun DFT Library
   Mihaly Kallay                                 : mrcc  (arbitrary order and MRCC methods)
   Jiri Pittner, Ondrej Demel                    : Mk-CCSD
   Frank Weinhold                                : gennbo (NPA and NBO analysis)
   Christopher J. Cramer and Donald G. Truhlar   : smd solvation model
   Lars Goerigk                                  : TD-DFT with DH, B97 family of functionals
   V. Asgeirsson, H. Jonsson                     : NEB implementation
   FAccTs GmbH                                   : IRC, NEB, NEB-TS, DLPNO-Multilevel, CI-OPT
                                                   MM, QMMM, 2- and 3-layer-ONIOM, Crystal-QMMM,
                                                   LR-CPCM, SF, NACMEs, symmetry and pop. for TD-DFT,
                                                   nearIR, NL-DFT gradient (VV10), updates on ESD,
                                                   ML-optimized integration grids
   S Lehtola, MJT Oliveira, MAL Marques          : LibXC Library
   Liviu Ungur et al                             : ANISO software


 Your calculation uses the libint2 library for the computation of 2-el integrals
 For citations please refer to: http://libint.valeyev.net

 Your ORCA version has been built with support for libXC version: 5.1.0
 For citations please refer to: https://tddft.org/programs/libxc/

 This ORCA versions uses:
   CBLAS   interface :  Fast vector & matrix operations
   LAPACKE interface :  Fast linear algebra routines
   SCALAPACK package :  Parallel linear algebra routines
   Shared memory     :  Shared parallel matrices
   BLAS/LAPACK       :  OpenBLAS 0.3.15  USE64BITINT DYNAMIC_ARCH NO_AFFINITY SkylakeX SINGLE_THREADED
        Core in use  :  SkylakeX
   Copyright (c) 2011-2014, The OpenBLAS Project


================================================================================

----- Orbital basis set information -----
Your calculation utilizes the basis: def2-SVP
   F. Weigend and R. Ahlrichs, Phys. Chem. Chem. Phys. 7, 3297 (2005).

The basis set includes element-specific modifications.

Your calculation utilizes the basis: aug-cc-pVTZ 
    H, B-Ne : Obtained from the ccRepo (grant-hill.group.shef.ac.uk/ccrepo) Feb. 2017
              R. A. Kendall, T. H. Dunning, Jr., R. J. Harrison, J. Chem. Phys. 96, 6796 (1992)
         He : Obtained from the ccRepo (grant-hill.group.shef.ac.uk/ccrepo) Feb. 2017
              D. E. Woon, T. H. Dunning, Jr., J. Chem. Phys. 100, 2975 (1994)
  Li-Be, Na : Obtained from the ccRepo (grant-hill.group.shef.ac.uk/ccrepo) Feb. 2017
              B. P. Prascher, D. E. Woon, K. A. Peterson, T. H. Dunning, Jr., A. K. Wilson, Theor. Chem. Acc. 128, 69 (2011)
         Mg : Obtained from the Peterson Research Group Website (tyr0.chem.wsu.edu/~kipeters) Feb. 2017
              B. P. Prascher, D. E. Woon, K. A. Peterson, T. H. Dunning, Jr., A. K. Wilson, Theor. Chem. Acc. 128, 69 (2011)
      Al-Ar : Obtained from the ccRepo (grant-hill.group.shef.ac.uk/ccrepo) Feb. 2017
              D. E. Woon, T. H. Dunning, Jr., J. Chem. Phys. 98, 1358 (1993)
      Sc-Zn : Obtained from the ccRepo (grant-hill.group.shef.ac.uk/ccrepo) Feb. 2017
              N. B. Balabanov, K. A. Peterson, J. Chem. Phys. 123, 064107 (2005)
              N. B. Balabanov, K. A. Peterson, J. Chem. Phys. 125, 074110 (2006)
      Ga-Kr : Obtained from the ccRepo (grant-hill.group.shef.ac.uk/ccrepo) Feb. 2017
              A. K. Wilson, D. E. Woon, K. A. Peterson, T. H. Dunning, Jr., J. Chem. Phys. 110, 7667 (1999)
     Ag, Au : Obtained from the Peterson Research Group Website (tyr0.chem.wsu.edu/~kipeters) Feb. 2017
              K. A. Peterson, C. Puzzarini, Theor. Chem. Acc. 114, 283 (2005)

Your calculation utilizes the basis: cc-pVTZ 
       H, B-Ne : Obtained from the ccRepo (grant-hill.group.shef.ac.uk/ccrepo) Feb. 2017
                 T. H. Dunning, Jr., J. Chem. Phys. 90, 1007 (1989)
            He : Obtained from the ccRepo (grant-hill.group.shef.ac.uk/ccrepo) Feb. 2017
                 D. E. Woon, T. H. Dunning, Jr., J. Chem. Phys. 100, 2975 (1994)
  Li-Be, Na-Mg : Obtained from the ccRepo (grant-hill.group.shef.ac.uk/ccrepo) Feb. 2017
                 B. P. Prascher, D. E. Woon, K. A. Peterson, T. H. Dunning, Jr., A. K. Wilson, Theor. Chem. Acc. 128, 69 (2011)
         Al-Ar : Obtained from the ccRepo (grant-hill.group.shef.ac.uk/ccrepo) Feb. 2017
                 D. E. Woon, T. H. Dunning, Jr., J. Chem. Phys. 98, 1358 (1993)
            Ca : Obtained from the Peterson Research Group Website (tyr0.chem.wsu.edu/~kipeters) Feb. 2017
                 J. Koput, K. A. Peterson, J. Phys. Chem. 106, 9595 (2002)
         Sc-Zn : Obtained from the ccRepo (grant-hill.group.shef.ac.uk/ccrepo) Feb. 2017
                 N. B. Balabanov, K. A. Peterson, J. Chem. Phys. 123, 064107 (2005)
                 N. B. Balabanov, K. A. Peterson, J. Chem. Phys. 125, 074110 (2006)
         Ga-Kr : Obtained from the ccRepo (grant-hill.group.shef.ac.uk/ccrepo) Feb. 2017
                 A. K. Wilson, D. E. Woon, K. A. Peterson, T. H. Dunning, Jr., J. Chem. Phys. 110, 7667 (1999)
             Y : Obtained from the ccRepo (grant-hill.group.shef.ac.uk/ccrepo) Feb. 2017
                 K. A. Peterson, D. Figgen, M. Dolg, H. Stoll, J. Chem. Phys. 126, 124101 (2007)
        Ag, Au : Obtained from the Peterson Research Group Website (tyr0.chem.wsu.edu/~kipeters) Feb. 2017
                 K. A. Peterson, C. Puzzarini, Theor. Chem. Acc. 114, 283 (2005)

----- AuxJ basis set information -----
Your calculation utilizes the auxiliary basis: def2/J
   F. Weigend, Phys. Chem. Chem. Phys. 8, 1057 (2006).

================================================================================
                                        WARNINGS
                       Please study these warnings very carefully!
================================================================================

WARNING: The globally-selected AuxJ basis set is optimized for use with ECPs
         Make sure a suitable alternative is explicitly given all heavy elements (Z>36)

INFO   : the flag for use of the SHARK integral package has been found!

================================================================================
                                       INPUT FILE
================================================================================
NAME = final004.orca.inp
|  1> ! NoMOPrint PrintBasis #MINIPRINT SMALLPRINT LARGEPRINT
|  2> ! ALLPOP XYZFILE
|  3> #! BP86 3-21G   TightSCF
|  4> ! ENGRAD
|  5> ! B3LYP NormalPNO PModel #DecontractAux
|  6> #! VerySlowConv 
|  7>  %maxcore 5000
|  8>  %scf  maxiter   500  end 
|  9> 
| 10> %pal
| 11>     nprocs 32
| 12> end
| 13> 
| 14> %basis
| 15>     NewGTO O    # New basis for oxygen
| 16>         "aug-cc-pVTZ"
| 17>     end
| 18>     NewGTO C    # New basis for carbon
| 19>         "aug-cc-pVTZ"
| 20>     end
| 21>     NewGTO H    # New basis for hydrogen
| 22>         "cc-pVTZ"
| 23>     end
| 24> end
| 25> 
| 26> * xyz 0   1
| 27>   C  10.54  11.8  9.73  #1
| 28>   H  9.47  12.11  9.91  #2
| 29>   H  10.57  10.78  9.32  #3
| 30>   C  11.22  11.85  11.1  #4
| 31>   H  12.32  11.68  11.13  #5
| 32>   H  11.13  12.93  11.39  #6
| 33>   C  10.56  10.98  12.11  #7
| 34>   H  9.46  11.12  12.04  #8
| 35>   H  10.9  11.28  13.13  #9
| 36>   C  11.05  9.55  12.02  #10
| 37>   H  12.14  9.55  12.28  #11
| 38>   H  10.88  9.04  11.08  #12
| 39>   O  10.3  8.86  13.03  #13
| 40>   H  10.66  9.25  13.87  #14
| 41>   O  11.17  12.78  8.82  #15
| 42>   H  10.74  12.63  7.91  #16
| 43>   O  11.39  7.83  16.37  #17
| 44>   H  11.6  7.55  17.26  #18
| 45>   H  11.33  7.07  15.8  #19
| 46>   O  9.49  8.86  7.88  #20
| 47>   H  8.76  8.65  8.5  #21
| 48>   H  9.2  9.54  7.3  #22
| 49>   O  8.44  7.05  12.22  #23
| 50>   H  9.07  6.43  11.88  #24
| 51>   H  9.09  7.66  12.6  #25
| 52>   O  13.77  9.21  11.02  #26
| 53>   H  14.49  8.82  10.47  #27
| 54>   H  14.15  9.4  11.9  #28
| 55>   O  12.56  11.13  5.89  #29
| 56>   H  12.7  11.05  6.86  #30
| 57>   H  12.21  10.23  5.6  #31
| 58>   O  12.33  9.39  8.69  #32
| 59>   H  12.58  9.29  9.63  #33
| 60>   H  11.42  9.15  8.62  #34
| 61>   O  10.83  7.51  5.96  #35
| 62>   H  10.12  7.76  6.61  #36
| 63>   H  10.56  6.74  5.44  #37
| 64>   O  10.29  15.72  11.59  #38
| 65>   H  10.28  16.63  11.91  #39
| 66>   H  9.59  15.29  12.1  #40
| 67>   O  12.96  6.53  19.15  #41
| 68>   H  13.16  5.59  18.89  #42
| 69>   H  12.46  6.49  19.99  #43
| 70>   O  11.66  10.22  15.09  #44
| 71>   H  11.53  9.37  15.52  #45
| 72>   H  10.88  10.8  15.3  #46
| 73>   O  10.44  5.78  10.65  #47
| 74>   H  11.35  6.06  10.65  #48
| 75>   H  10.47  4.83  10.64  #49
| 76>   O  16.79  9.89  10.44  #50
| 77>   H  17.36  9.09  10.65  #51
| 78>   H  16.64  10.16  11.35  #52
| 79>   O  15.43  9.32  13.23  #53
| 80>   H  14.9  9.11  13.93  #54
| 81>   H  16.14  9.73  13.68  #55
| 82>   O  7.57  8.09  9.78  #56
| 83>   H  7.98  7.64  10.55  #57
| 84>   H  6.65  7.79  9.69  #58
| 85>   O  10.74  15.37  8.92  #59
| 86>   H  10.48  15.26  9.81  #60
| 87>   H  11.03  14.44  8.73  #61
| 88>   O  13.96  12.84  8.74  #62
| 89>   H  12.99  12.74  8.92  #63
| 90>   H  14.39  12.8  9.6  #64
| 91>   O  13.28  6.21  10.8  #65
| 92>   H  14.11  6.69  10.79  #66
| 93>   H  13.22  5.57  11.52  #67
| 94>   O  15.04  8.83  8.46  #68
| 95>   H  15.66  9.5  8.81  #69
| 96>   H  14.02  9.02  8.46  #70
| 97>   O  16.3  6.68  9.33  #71
| 98>   H  17.18  6.48  9.63  #72
| 99>   H  16.05  7.61  9.25  #73
|100>   O  14.12  7.97  15.34  #74
|101>   H  14.55  8.07  16.18  #75
|102>   H  13.23  8.04  15.53  #76
|103>   O  9.89  11.67  6.45  #77
|104>   H  9.32  12.33  6.06  #78
|105>   H  10.71  11.56  5.91  #79
|106>   O  11.62  9.23  4.1  #80
|107>   H  11.28  8.54  4.72  #81
|108>   H  11.44  8.76  3.27  #82
|109>   O  6.37  9.05  12.79  #83
|110>   H  5.46  9.15  12.48  #84
|111>   H  6.95  8.6  12.09  #85
|112>   O  15.45  11.15  4.88  #86
|113>   H  15.71  11.82  4.22  #87
|114>   H  14.49  11.47  5.04  #88
|115>   O  10.68  5.77  14.62  #89
|116>   H  9.82  5.38  14.67  #90
|117>   H  11.15  5.26  13.97  #91
|118>   O  7.7  13.02  12.68  #92
|119>   H  7.52  13.71  12.01  #93
|120>   H  8.38  13.29  13.34  #94
|121>   O  11.95  14.07  4.9  #95
|122>   H  11.34  13.83  4.14  #96
|123>   H  12.26  13.19  5.21  #97
|124>   O  13.84  13.94  12.76  #98
|125>   H  12.94  13.99  13.17  #99
|126>   H  14.09  14.89  12.7  #100
|127>   O  8.49  8.08  16.43  #101
|128>   H  9.37  8.37  16.11  #102
|129>   H  7.92  8.76  16  #103
|130>   Q  0.6645  0.15$  13.96$  8.54$
|131>   Q  0.6645  1.72$  14.02$  8.04$
|132>   Q  -1.3290  0.9$  13.69$  8.14$
|133>   Q  0.6645  2.32$  7.55$  15.1$
|134>   Q  0.6645  1.52$  8.61$  14.7$
|135>   Q  -1.3290  2.15$  8.33$  15.13$
|136>   Q  0.6645  14.76$  14.69$  8.9$
|137>   Q  0.6645  14.39$  16.14$  9.15$
|138>   Q  -1.3290  14.75$  15.5$  8.74$
|139>   Q  0.6645  6.52$  13.76$  4.3$
|140>   Q  0.6645  5.26$  14.75$  4.17$
|141>   Q  -1.3290  5.71$  14.01$  4.05$
|142>   Q  0.6645  12.34$  3.77$  17.8$
|143>   Q  0.6645  13.73$  4.15$  17.24$
|144>   Q  -1.3290  13.16$  4.04$  17.84$
|145>   Q  0.6645  14.62$  16.7$  1.6$
|146>   Q  0.6645  14.46$  16.19$  3.03$
|147>   Q  -1.3290  14.33$  16.21$  2.18$
|148>   Q  0.6645  4.05$  11.39$  13.48$
|149>   Q  0.6645  3$  10.86$  14.51$
|150>   Q  -1.3290  3.7$  11.26$  14.24$
|151>   Q  0.6645  9.28$  6.41$  19.69$
|152>   Q  0.6645  8.85$  7.72$  18.95$
|153>   Q  -1.3290  9.18$  7.25$  19.57$
|154>   Q  0.6645  15.71$  13.82$  15.66$
|155>   Q  0.6645  15.08$  13.87$  14.25$
|156>   Q  -1.3290  15.72$  13.89$  14.82$
|157>   Q  0.6645  2.19$  7.93$  7.5$
|158>   Q  0.6645  3.68$  7.97$  7.15$
|159>   Q  -1.3290  2.98$  8.16$  7.59$
|160>   Q  0.6645  7.8$  15.72$  17.71$
|161>   Q  0.6645  8.5$  16.2$  16.5$
|162>   Q  -1.3290  8.47$  15.83$  17.25$
|163>   Q  0.6645  4.95$  15.61$  13.8$
|164>   Q  0.6645  6.31$  16.19$  13.49$
|165>   Q  -1.3290  5.48$  16.17$  13.42$
|166>   Q  0.6645  16.03$  11.43$  1.62$
|167>   Q  0.6645  15.61$  9.88$  2.12$
|168>   Q  -1.3290  16.15$  10.57$  1.84$
|169>   Q  0.6645  14.75$  1.44$  11.25$
|170>   Q  0.6645  15.5$  1.98$  12.42$
|171>   Q  -1.3290  15.08$  2.03$  11.71$
|172>   Q  0.6645  12.48$  13.76$  19.22$
|173>   Q  0.6645  11.16$  13.14$  19.09$
|174>   Q  -1.3290  11.81$  13.53$  18.8$
|175>   Q  0.6645  4.16$  8.45$  16.23$
|176>   Q  0.6645  5.18$  7.48$  15.83$
|177>   Q  -1.3290  4.83$  8$  16.37$
|178>   Q  0.6645  6.46$  18.68$  16.32$
|179>   Q  0.6645  7.72$  18.27$  15.65$
|180>   Q  -1.3290  7.28$  18.68$  16.2$
|181>   Q  0.6645  13.36$  9.26$  0.77$
|182>   Q  0.6645  13.33$  9.76$  -0.6$
|183>   Q  -1.3290  13.28$  9.85$  0.21$
|184>   Q  0.6645  16.42$  14.96$  17.44$
|185>   Q  0.6645  14.92$  15.12$  16.95$
|186>   Q  -1.3290  15.56$  14.8$  17.42$
|187>   Q  0.6645  15.06$  17.01$  5.42$
|188>   Q  0.6645  13.64$  16.36$  5.49$
|189>   Q  -1.3290  14.31$  16.76$  5.13$
|190>   Q  0.6645  9.3$  21$  16.27$
|191>   Q  0.6645  10.22$  19.78$  16.15$
|192>   Q  -1.3290  9.85$  20.5$  15.87$
|193>   Q  0.6645  3.74$  15.62$  10.84$
|194>   Q  0.6645  4.55$  16.54$  11.76$
|195>   Q  -1.3290  4.11$  16.33$  11.07$
|196>   Q  0.6645  15.58$  17.58$  15.41$
|197>   Q  0.6645  14.59$  18.62$  16.24$
|198>   Q  -1.3290  14.82$  17.95$  15.64$
|199>   Q  0.6645  11.91$  18.65$  8.09$
|200>   Q  0.6645  10.97$  19.48$  7.23$
|201>   Q  -1.3290  11.71$  19.19$  7.48$
|202>   Q  0.6645  10.64$  2.04$  11.92$
|203>   Q  0.6645  11.45$  1.26$  13.03$
|204>   Q  -1.3290  10.98$  1.9$  12.71$
|205>   Q  0.6645  16.41$  7.68$  13.42$
|206>   Q  0.6645  16.79$  6.22$  12.92$
|207>   Q  -1.3290  16.92$  6.99$  13.26$
|208>   Q  0.6645  16.05$  9.53$  5.32$
|209>   Q  0.6645  15.71$  8.95$  6.64$
|210>   Q  -1.3290  16.09$  8.94$  5.89$
|211>   Q  0.6645  4.45$  8.84$  10.32$
|212>   Q  0.6645  3.5$  9.91$  10.63$
|213>   Q  -1.3290  4.28$  9.63$  10.5$
|214>   Q  0.6645  10.35$  2.06$  15.9$
|215>   Q  0.6645  11.37$  1.62$  17.07$
|216>   Q  -1.3290  10.98$  2.16$  16.52$
|217>   Q  0.6645  17.21$  19.83$  6.81$
|218>   Q  0.6645  17.06$  18.61$  7.77$
|219>   Q  -1.3290  16.91$  19.39$  7.51$
|220>   Q  0.6645  14.31$  2.46$  15.32$
|221>   Q  0.6645  12.7$  2.48$  15.74$
|222>   Q  -1.3290  13.48$  2.76$  15.41$
|223>   Q  0.6645  7.05$  4.95$  3.88$
|224>   Q  0.6645  7.5$  4.83$  2.46$
|225>   Q  -1.3290  7.33$  5.24$  3.16$
|226>   Q  0.6645  8.81$  21.03$  13.99$
|227>   Q  0.6645  8.62$  21.89$  12.69$
|228>   Q  -1.3290  8.69$  21.18$  13.15$
|229>   Q  0.6645  6.62$  20.84$  6.83$
|230>   Q  0.6645  7.51$  20.03$  5.9$
|231>   Q  -1.3290  7.27$  20.72$  6.32$
|232>   Q  0.6645  4.86$  6.48$  10.48$
|233>   Q  0.6645  4$  6.83$  9.26$
|234>   Q  -1.3290  4.67$  6.88$  9.74$
|235>   Q  0.6645  6.69$  14.16$  0.67$
|236>   Q  0.6645  6.62$  15.12$  -0.51$
|237>   Q  -1.3290  6.93$  14.82$  0.21$
|238>   Q  0.6645  13.91$  6.67$  5.77$
|239>   Q  0.6645  15.21$  7.28$  5.3$
|240>   Q  -1.3290  14.58$  6.69$  5.29$
|241>   Q  0.6645  7.65$  10.5$  18.51$
|242>   Q  0.6645  9.1$  10.95$  18.98$
|243>   Q  -1.3290  8.3$  11.07$  18.68$
|244>   Q  0.6645  13.22$  8.64$  18.98$
|245>   Q  0.6645  13.21$  10.05$  18.59$
|246>   Q  -1.3290  13.14$  9.47$  19.15$
|247>   Q  0.6645  16$  7.75$  18.36$
|248>   Q  0.6645  15.6$  9.27$  18.02$
|249>   Q  -1.3290  15.71$  8.42$  17.89$
|250>   Q  0.6645  14.31$  14.86$  20.04$
|251>   Q  0.6645  14.51$  13.28$  20.2$
|252>   Q  -1.3290  14.16$  14.07$  20.34$
|253>   Q  0.6645  17.9$  8.02$  6.34$
|254>   Q  0.6645  19.05$  7.55$  5.74$
|255>   Q  -1.3290  18.57$  7.62$  6.36$
|256>   Q  0.6645  6.96$  0.12$  16.74$
|257>   Q  0.6645  7.99$  1.03$  16.11$
|258>   Q  -1.3290  7.68$  0.54$  16.72$
|259>   Q  0.6645  4.16$  14.9$  7.45$
|260>   Q  0.6645  4.23$  13.36$  7.68$
|261>   Q  -1.3290  3.91$  14.14$  7.75$
|262>   Q  0.6645  15.85$  4.16$  11.72$
|263>   Q  0.6645  16.01$  5.29$  10.83$
|264>   Q  -1.3290  16.14$  4.92$  11.53$
|265>   Q  0.6645  16.02$  16.18$  7.28$
|266>   Q  0.6645  17.42$  15.91$  6.79$
|267>   Q  -1.3290  16.75$  16.39$  6.9$
|268>   Q  0.6645  9.14$  2.08$  7.08$
|269>   Q  0.6645  8.64$  3.18$  8.02$
|270>   Q  -1.3290  8.66$  2.42$  7.65$
|271>   Q  0.6645  9.25$  19.04$  12.91$
|272>   Q  0.6645  8.33$  18.12$  12.08$
|273>   Q  -1.3290  8.95$  18.31$  12.64$
|274>   Q  0.6645  15.24$  13.61$  11.39$
|275>   Q  0.6645  16.45$  12.9$  10.92$
|276>   Q  -1.3290  15.79$  13.4$  10.84$
|277>   Q  0.6645  13.8$  3.31$  10.41$
|278>   Q  0.6645  13.66$  2.48$  9.13$
|279>   Q  -1.3290  13.57$  3.16$  9.6$
|280>   Q  0.6645  4.85$  7.1$  5.21$
|281>   Q  0.6645  5.33$  6.29$  6.42$
|282>   Q  -1.3290  4.76$  6.6$  5.91$
|283>   Q  0.6645  17.01$  18.51$  12.59$
|284>   Q  0.6645  16.32$  18.91$  11.28$
|285>   Q  -1.3290  16.64$  18.37$  11.86$
|286>   Q  0.6645  3.96$  13.28$  14.66$
|287>   Q  0.6645  3.71$  14.36$  15.62$
|288>   Q  -1.3290  3.95$  14.07$  14.91$
|289>   Q  0.6645  6.44$  10.44$  16.01$
|290>   Q  0.6645  6.94$  10.08$  14.6$
|291>   Q  -1.3290  7.01$  10.28$  15.42$
|292>   Q  0.6645  11.47$  14.81$  2.16$
|293>   Q  0.6645  11.01$  13.34$  1.81$
|294>   Q  -1.3290  11$  14.1$  2.22$
|295>   Q  0.6645  7.64$  7.2$  6.29$
|296>   Q  0.6645  8.02$  6.17$  7.32$
|297>   Q  -1.3290  7.54$  6.52$  6.71$
|298>   Q  0.6645  8.61$  9$  4.22$
|299>   Q  0.6645  7.27$  9.17$  4.91$
|300>   Q  -1.3290  7.99$  8.78$  4.74$
|301>   Q  0.6645  7.69$  1.24$  8.8$
|302>   Q  0.6645  6.38$  0.6$  9.39$
|303>   Q  -1.3290  7.23$  0.72$  9.31$
|304>   Q  0.6645  10.16$  10.27$  3.11$
|305>   Q  0.6645  8.71$  10.67$  3.61$
|306>   Q  -1.3290  9.3$  10.3$  3.12$
|307>   Q  0.6645  4.2$  17.88$  10.05$
|308>   Q  0.6645  3.22$  18.72$  9.27$
|309>   Q  -1.3290  3.97$  18.46$  9.45$
|310>   Q  0.6645  8.14$  2.92$  14.75$
|311>   Q  0.6645  9.09$  1.88$  14.01$
|312>   Q  -1.3290  8.6$  2.19$  14.66$
|313>   Q  0.6645  4.4$  16.89$  6.18$
|314>   Q  0.6645  3.76$  17.09$  7.58$
|315>   Q  -1.3290  4.33$  16.73$  7.02$
|316>   Q  0.6645  9.01$  17.87$  5.19$
|317>   Q  0.6645  10.01$  17.5$  6.38$
|318>   Q  -1.3290  9.31$  17.83$  6.02$
|319>   Q  0.6645  12.67$  15.94$  17.03$
|320>   Q  0.6645  13.47$  16.6$  15.88$
|321>   Q  -1.3290  13.1$  15.95$  16.31$
|322>   Q  0.6645  1.84$  14.55$  14.37$
|323>   Q  0.6645  0.49$  15.2$  13.76$
|324>   Q  -1.3290  1.03$  14.74$  14.29$
|325>   Q  0.6645  12.18$  6.78$  7.33$
|326>   Q  0.6645  12.9$  6.39$  8.64$
|327>   Q  -1.3290  12.67$  6.32$  7.83$
|328>   Q  0.6645  8.6$  10.95$  15.79$
|329>   Q  0.6645  9.06$  11.63$  17.04$
|330>   Q  -1.3290  9.13$  11.41$  16.23$
|331>   Q  0.6645  11.62$  21.11$  14.62$
|332>   Q  0.6645  13.05$  21.82$  14.2$
|333>   Q  -1.3290  12.21$  21.58$  14.14$
|334>   Q  0.6645  9.86$  14.43$  14.52$
|335>   Q  0.6645  9.08$  13.4$  15.39$
|336>   Q  -1.3290  9.21$  13.97$  14.76$
|337>   Q  0.6645  16.85$  6.13$  19.95$
|338>   Q  0.6645  17.94$  6.18$  19.02$
|339>   Q  -1.3290  17.17$  6.03$  19.22$
|340>   Q  0.6645  13.86$  8.35$  2.96$
|341>   Q  0.6645  14.91$  7.76$  1.96$
|342>   Q  -1.3290  14.45$  8.33$  2.35$
|343>   Q  0.6645  10.23$  21.22$  7.81$
|344>   Q  0.6645  8.98$  20.94$  6.93$
|345>   Q  -1.3290  9.79$  21.14$  7.1$
|346>   Q  0.6645  19.38$  11.86$  7.75$
|347>   Q  0.6645  17.86$  11.71$  7.75$
|348>   Q  -1.3290  18.64$  11.59$  8.05$
|349>   Q  0.6645  6.98$  20.78$  12.23$
|350>   Q  0.6645  6.45$  20.98$  10.79$
|351>   Q  -1.3290  6.44$  20.64$  11.58$
|352>   Q  0.6645  6.88$  3.23$  10.95$
|353>   Q  0.6645  5.69$  4.01$  10.73$
|354>   Q  -1.3290  6.38$  3.64$  10.45$
|355>   Q  0.6645  17.97$  7.4$  14.85$
|356>   Q  0.6645  17.72$  8.13$  16.3$
|357>   Q  -1.3290  18.18$  7.65$  15.7$
|358>   Q  0.6645  7.09$  14.67$  9.93$
|359>   Q  0.6645  6.69$  15.86$  10.99$
|360>   Q  -1.3290  7.08$  15.12$  10.68$
|361>   Q  0.6645  14.57$  14.05$  2.99$
|362>   Q  0.6645  14.42$  14.62$  4.37$
|363>   Q  -1.3290  14.82$  14.22$  3.78$
|364>   Q  0.6645  5.19$  5.31$  18.28$
|365>   Q  0.6645  4.5$  6.62$  17.96$
|366>   Q  -1.3290  4.54$  5.83$  18.26$
|367>   Q  0.6645  3.36$  9.2$  4.58$
|368>   Q  0.6645  2.75$  9.65$  5.99$
|369>   Q  -1.3290  3.17$  9.75$  5.25$
|370>   Q  0.6645  5.15$  19.64$  8.02$
|371>   Q  0.6645  4.41$  20.63$  7.1$
|372>   Q  -1.3290  4.95$  20.01$  7.29$
|373>   Q  0.6645  11.11$  20.11$  11.09$
|374>   Q  0.6645  11.97$  20.39$  12.45$
|375>   Q  -1.3290  11.69$  19.99$  11.72$
|376>   Q  0.6645  15.33$  16.02$  18.65$
|377>   Q  0.6645  15.93$  16.85$  19.72$
|378>   Q  -1.3290  15.28$  16.53$  19.29$
|379>   Q  0.6645  4.74$  17.51$  15.13$
|380>   Q  0.6645  3.83$  17.37$  16.3$
|381>   Q  -1.3290  4.31$  17.81$  15.78$
|382>   Q  0.6645  5.28$  17.05$  4.11$
|383>   Q  0.6645  3.91$  16.58$  3.71$
|384>   Q  -1.3290  4.6$  16.55$  4.19$
|385>   Q  0.6645  12.19$  16.72$  9.44$
|386>   Q  0.6645  12.95$  17.75$  10.27$
|387>   Q  -1.3290  12.75$  17.33$  9.57$
|388>   Q  0.6645  6.34$  16.83$  1.82$
|389>   Q  0.6645  6.78$  18.18$  2.45$
|390>   Q  -1.3290  6.23$  17.65$  2.09$
|391>   Q  0.6645  8.03$  6.13$  15.62$
|392>   Q  0.6645  7.76$  4.79$  16.13$
|393>   Q  -1.3290  7.87$  5.33$  15.53$
|394>   Q  0.6645  12.16$  19.47$  2.65$
|395>   Q  0.6645  11.73$  19.42$  1.13$
|396>   Q  -1.3290  11.67$  19.27$  1.98$
|397>   Q  0.6645  1.84$  12.03$  7.98$
|398>   Q  0.6645  2.15$  10.69$  8.67$
|399>   Q  -1.3290  2.07$  11.22$  8$
|400>   Q  0.6645  18.26$  9.67$  15.21$
|401>   Q  0.6645  18.03$  11.14$  14.68$
|402>   Q  -1.3290  17.83$  10.34$  14.86$
|403>   Q  0.6645  20.51$  14.76$  9.46$
|404>   Q  0.6645  19.99$  13.61$  10.23$
|405>   Q  -1.3290  20.56$  14.18$  10.05$
|406>   Q  0.6645  15.38$  7.98$  20.81$
|407>   Q  0.6645  14.32$  6.96$  20.28$
|408>   Q  -1.3290  14.98$  7.21$  20.78$
|409>   Q  0.6645  7.86$  4.75$  9.19$
|410>   Q  0.6645  9.27$  5.38$  9.17$
|411>   Q  -1.3290  8.66$  4.86$  8.9$
|412>   Q  0.6645  11.48$  10.52$  19.66$
|413>   Q  0.6645  10.92$  11.34$  20.84$
|414>   Q  -1.3290  10.94$  11.06$  20.04$
|415>   Q  0.6645  18.58$  16.01$  17.41$
|416>   Q  0.6645  18.22$  15.85$  15.95$
|417>   Q  -1.3290  18.3$  15.6$  16.74$
|418>   Q  0.6645  8.75$  8.49$  -0.66$
|419>   Q  0.6645  8.72$  9.84$  0.23$
|420>   Q  -1.3290  8.83$  8.99$  0.06$
|421>   Q  0.6645  3.9$  12.79$  4.27$
|422>   Q  0.6645  2.77$  11.69$  4.61$
|423>   Q  -1.3290  3.16$  12.36$  4.18$
|424>   Q  0.6645  12.08$  15.08$  14.8$
|425>   Q  0.6645  11.68$  15.53$  13.53$
|426>   Q  -1.3290  11.75$  14.95$  14.08$
|427>   Q  0.6645  18.94$  4.78$  10.08$
|428>   Q  0.6645  19.67$  5.73$  9.15$
|429>   Q  -1.3290  19.1$  5.52$  9.7$
|430>   Q  0.6645  0.4$  13.29$  11.12$
|431>   Q  0.6645  1.82$  13.08$  11.32$
|432>   Q  -1.3290  1.03$  12.86$  11.4$
|433>   Q  0.6645  20.45$  8.49$  9.69$
|434>   Q  0.6645  21.56$  7.44$  9.17$
|435>   Q  -1.3290  21.22$  8$  9.72$
|436>   Q  0.6645  9.44$  3.25$  19.47$
|437>   Q  0.6645  9.9$  4.07$  18.25$
|438>   Q  -1.3290  9.54$  3.92$  18.98$
|439>   Q  0.6645  7.28$  11.94$  22.08$
|440>   Q  0.6645  7.77$  11.79$  20.65$
|441>   Q  -1.3290  7.79$  11.64$  21.5$
|442>   Q  0.6645  12.14$  3.6$  12.65$
|443>   Q  0.6645  13.44$  4.2$  13.2$
|444>   Q  -1.3290  12.72$  4.21$  12.81$
|445>   Q  0.6645  5.18$  2.89$  13.69$
|446>   Q  0.6645  5.15$  1.97$  12.45$
|447>   Q  -1.3290  5.53$  2.43$  13.08$
|448>   Q  0.6645  4.01$  13.37$  11.12$
|449>   Q  0.6645  3.7$  13.99$  9.67$
|450>   Q  -1.3290  3.56$  13.78$  10.52$
|451>   Q  0.6645  3.07$  11.11$  19.16$
|452>   Q  0.6645  3.1$  9.55$  19.14$
|453>   Q  -1.3290  3.38$  10.35$  18.92$
|454>   Q  0.6645  18.75$  15.1$  12.03$
|455>   Q  0.6645  18.93$  14.36$  13.29$
|456>   Q  -1.3290  18.96$  15.01$  12.81$
|457>   Q  0.6645  1.82$  5.33$  12.68$
|458>   Q  0.6645  2.13$  4.06$  13.45$
|459>   Q  -1.3290  2.3$  4.8$  13.13$
|460>   Q  0.6645  16.38$  10.73$  16.56$
|461>   Q  0.6645  14.91$  11.29$  17.03$
|462>   Q  -1.3290  15.77$  11.09$  17.07$
|463>   Q  0.6645  17.51$  13.24$  14.64$
|464>   Q  0.6645  18.59$  13.12$  15.78$
|465>   Q  -1.3290  18.3$  13.09$  14.97$
|466>   Q  0.6645  21.05$  10.96$  11.99$
|467>   Q  0.6645  20.06$  9.96$  12.52$
|468>   Q  -1.3290  20.42$  10.71$  12.46$
|469>   Q  0.6645  19.09$  7.85$  11.2$
|470>   Q  0.6645  18.45$  7.75$  12.52$
|471>   Q  -1.3290  18.93$  8.12$  11.94$
|472>   Q  0.6645  14.24$  13.41$  0.49$
|473>   Q  0.6645  13.89$  12.22$  1.29$
|474>   Q  -1.3290  14.27$  12.94$  1.16$
|475>   Q  0.6645  11.44$  18.53$  13.18$
|476>   Q  0.6645  11.96$  17.84$  14.51$
|477>   Q  -1.3290  11.81$  17.94$  13.68$
|478>   Q  0.6645  5.89$  7.52$  20.74$
|479>   Q  0.6645  5.63$  7.36$  22.25$
|480>   Q  -1.3290  5.43$  7.32$  21.43$
|481>   Q  0.6645  11.59$  16.31$  18.97$
|482>   Q  0.6645  10.54$  15.75$  17.99$
|483>   Q  -1.3290  11.14$  16.27$  18.24$
|484>   Q  0.6645  8.51$  16.94$  13.93$
|485>   Q  0.6645  8.02$  15.58$  14.62$
|486>   Q  -1.3290  8.03$  16.43$  14.42$
|487>   Q  0.6645  17.31$  4.82$  16.45$
|488>   Q  0.6645  17.81$  3.29$  16.5$
|489>   Q  -1.3290  17.57$  4.04$  16.13$
|490>   Q  0.6645  6.96$  12.35$  5.74$
|491>   Q  0.6645  7.6$  13.74$  6.34$
|492>   Q  -1.3290  7.5$  13.03$  5.8$
|493>   Q  0.6645  5.93$  12.2$  12.32$
|494>   Q  0.6645  5.2$  11.16$  11.42$
|495>   Q  -1.3290  5.27$  11.82$  11.98$
|496>   Q  0.6645  14.13$  4.28$  7.54$
|497>   Q  0.6645  14.64$  4.6$  6.15$
|498>   Q  -1.3290  14.44$  4.1$  6.8$
|499>   Q  0.6645  8.77$  14.91$  7.8$
|500>   Q  0.6645  7.41$  15.53$  7.95$
|501>   Q  -1.3290  7.93$  14.89$  7.79$
|502>   Q  0.6645  7.53$  3.99$  18.47$
|503>   Q  0.6645  6.21$  3.5$  17.71$
|504>   Q  -1.3290  6.78$  4.09$  18.01$
|505>   Q  0.6645  16.76$  15.52$  14.49$
|506>   Q  0.6645  17.77$  16.25$  13.76$
|507>   Q  -1.3290  17.14$  16.2$  14.29$
|508>   Q  0.6645  19$  8.34$  8.09$
|509>   Q  0.6645  18.68$  9.67$  8.64$
|510>   Q  -1.3290  18.95$  8.89$  8.71$
|511>   Q  0.6645  7.36$  2.92$  5.86$
|512>   Q  0.6645  7.18$  4.45$  6.18$
|513>   Q  -1.3290  7.06$  3.7$  5.77$
|514>   Q  0.6645  11.41$  6.62$  0.64$
|515>   Q  0.6645  11.38$  5.3$  -0.28$
|516>   Q  -1.3290  11.7$  6.01$  0.07$
|517>   Q  0.6645  21.47$  7.36$  13.45$
|518>   Q  0.6645  20.72$  8.46$  14.23$
|519>   Q  -1.3290  21.41$  8.05$  13.97$
|520>   Q  0.6645  12.19$  4.74$  6.17$
|521>   Q  0.6645  11.57$  3.37$  5.66$
|522>   Q  -1.3290  11.77$  4.24$  5.62$
|523>   Q  0.6645  10.1$  2.81$  9.24$
|524>   Q  0.6645  11.57$  2.99$  9.64$
|525>   Q  -1.3290  10.75$  2.76$  9.77$
|526>   Q  0.6645  6$  12.98$  2.45$
|527>   Q  0.6645  5.5$  11.85$  1.53$
|528>   Q  -1.3290  5.96$  12.53$  1.75$
|529>   Q  0.6645  7.38$  1.9$  12.53$
|530>   Q  0.6645  7.72$  1.41$  11.07$
|531>   Q  -1.3290  7.89$  1.64$  11.86$
|532>   Q  0.6645  4.38$  11.06$  17.41$
|533>   Q  0.6645  4.71$  11.48$  15.97$
|534>   Q  -1.3290  4.77$  11.53$  16.79$
|535>   Q  0.6645  18.01$  15.42$  4.38$
|536>   Q  0.6645  16.7$  15.13$  3.69$
|537>   Q  -1.3290  17.45$  15.47$  3.75$
|538>   Q  0.6645  14.93$  17.19$  12.9$
|539>   Q  0.6645  13.42$  17.1$  12.93$
|540>   Q  -1.3290  14.22$  16.84$  12.73$
|541>   Q  0.6645  17.17$  13.91$  7.06$
|542>   Q  0.6645  18.63$  13.85$  6.53$
|543>   Q  -1.3290  17.82$  14.08$  6.55$
|544>   Q  0.6645  15.97$  11.66$  19.07$
|545>   Q  0.6645  15.69$  10.81$  20.34$
|546>   Q  -1.3290  15.79$  11.56$  19.9$
|547>   Q  0.6645  8.5$  15.96$  0.32$
|548>   Q  0.6645  9.84$  16.43$  0.76$
|549>   Q  -1.3290  9.04$  16.52$  0.62$
|550>   Q  0.6645  17.8$  14.73$  10.14$
|551>   Q  0.6645  17.14$  16.14$  10.63$
|552>   Q  -1.3290  17.77$  15.6$  10.44$
|553>   Q  0.6645  14.44$  6.03$  14.8$
|554>   Q  0.6645  14.05$  4.6$  15.1$
|555>   Q  -1.3290  14.56$  5.21$  14.91$
|556>   Q  0.6645  6.62$  6.32$  14.09$
|557>   Q  0.6645  6.06$  7.68$  13.61$
|558>   Q  -1.3290  6.05$  6.92$  14.04$
|559>   Q  0.6645  18.43$  11.87$  10.68$
|560>   Q  0.6645  19.03$  12.12$  12.03$
|561>   Q  -1.3290  18.58$  12.34$  11.35$
|562>   Q  0.6645  11.4$  17.32$  1.62$
|563>   Q  0.6645  12.69$  16.38$  1.32$
|564>   Q  -1.3290  11.85$  16.64$  1.24$
|565>   Q  0.6645  1.3$  10.98$  10.68$
|566>   Q  0.6645  0.95$  9.48$  10.38$
|567>   Q  -1.3290  1.47$  10.17$  10.44$
|568>   Q  0.6645  15.41$  12.35$  7.87$
|569>   Q  0.6645  16.04$  11.97$  6.53$
|570>   Q  -1.3290  16.03$  12.15$  7.37$
|571>   Q  0.6645  9.16$  5.7$  3.82$
|572>   Q  0.6645  10.46$  5.05$  4.06$
|573>   Q  -1.3290  9.99$  5.65$  3.79$
|574>   Q  0.6645  8.74$  18.65$  17.61$
|575>   Q  0.6645  9.76$  17.72$  18.3$
|576>   Q  -1.3290  9.21$  18.38$  18.25$
|577>   Q  0.6645  7.44$  17.85$  7.23$
|578>   Q  0.6645  5.94$  17.42$  7.57$
|579>   Q  -1.3290  6.77$  17.62$  7.74$
|580>   Q  0.6645  6.96$  17.78$  9.98$
|581>   Q  0.6645  6.69$  18.76$  11.12$
|582>   Q  -1.3290  6.99$  18.03$  10.78$
|583>   Q  0.6645  2.5$  17.44$  10.81$
|584>   Q  0.6645  1.18$  17.18$  11.45$
|585>   Q  -1.3290  1.71$  17.58$  10.95$
|586>   Q  0.6645  11.67$  10.61$  1.13$
|587>   Q  0.6645  10.16$  11.01$  1.24$
|588>   Q  -1.3290  11$  11.12$  1.31$
|589>   Q  0.6645  5.83$  8.47$  18.38$
|590>   Q  0.6645  5.57$  9.66$  19.31$
|591>   Q  -1.3290  6.02$  9.02$  19$
|592>   Q  0.6645  8.83$  17.44$  2.36$
|593>   Q  0.6645  9.59$  18.72$  2.58$
|594>   Q  -1.3290  8.99$  18.15$  2.76$
|595>   Q  0.6645  7.51$  8.37$  1.3$
|596>   Q  0.6645  7.1$  7.13$  2.24$
|597>   Q  -1.3290  6.97$  7.84$  1.78$
|598>   Q  0.6645  13.42$  18.59$  4.7$
|599>   Q  0.6645  12.33$  19.45$  5.07$
|600>   Q  -1.3290  13$  19.28$  4.64$
|601>   Q  0.6645  5.41$  3.41$  7.12$
|602>   Q  0.6645  5.31$  3.77$  8.59$
|603>   Q  -1.3290  5$  3.58$  7.83$
|604>   Q  0.6645  10.29$  22.17$  10.19$
|605>   Q  0.6645  9.34$  21.02$  9.82$
|606>   Q  -1.3290  10.09$  21.43$  9.81$
|607>   Q  0.6645  10.56$  7$  2.54$
|608>   Q  0.6645  10.22$  8.12$  1.52$
|609>   Q  -1.3290  10.73$  7.58$  1.94$
|610>   Q  0.6645  4.08$  4.97$  12.23$
|611>   Q  0.6645  5.16$  5.85$  12.53$
|612>   Q  -1.3290  4.73$  5.47$  12.01$
|613>   Q  0.6645  11.65$  15.97$  7.14$
|614>   Q  0.6645  11.58$  15.6$  5.68$
|615>   Q  -1.3290  11.64$  16.13$  6.34$
|616>   Q  0.6645  12.74$  19.14$  17.16$
|617>   Q  0.6645  11.63$  18.17$  17.33$
|618>   Q  -1.3290  12.01$  18.82$  16.99$
|619>   Q  0.6645  4.91$  10.61$  8.73$
|620>   Q  0.6645  3.95$  10.98$  7.72$
|621>   Q  -1.3290  4.64$  11.06$  8.11$
|622>   Q  0.6645  15.51$  20.75$  14.62$
|623>   Q  0.6645  14.72$  19.91$  13.53$
|624>   Q  -1.3290  14.88$  20.53$  14.1$
|625>   Q  0.6645  16.59$  1.5$  14.82$
|626>   Q  0.6645  16.51$  3.12$  14.87$
|627>   Q  -1.3290  16.26$  2.3$  14.64$
|628>   Q  0.6645  2.79$  13.74$  18.39$
|629>   Q  0.6645  4.09$  13.16$  17.76$
|630>   Q  -1.3290  3.57$  13.76$  18.04$
|631>   Q  0.6645  5.59$  8.09$  3.13$
|632>   Q  0.6645  4.23$  7.32$  3.2$
|633>   Q  -1.3290  4.78$  7.91$  3.43$
|634>   Q  0.6645  12.87$  20.91$  10.75$
|635>   Q  0.6645  13.35$  21.5$  9.39$
|636>   Q  -1.3290  13.3$  21.46$  10.26$
|637>   Q  0.6645  4.82$  4.62$  15.36$
|638>   Q  0.6645  4.57$  3.25$  16.21$
|639>   Q  -1.3290  4.66$  3.79$  15.53$
|640>   Q  0.6645  16.06$  20.34$  9.13$
|641>   Q  0.6645  15.08$  20.84$  10.17$
|642>   Q  -1.3290  15.8$  20.56$  9.93$
|643>   Q  0.6645  5.18$  10.64$  5.14$
|644>   Q  0.6645  5.76$  10.56$  6.52$
|645>   Q  -1.3290  5.83$  10.59$  5.69$
|646>   Q  0.6645  16.34$  4.52$  7.06$
|647>   Q  0.6645  17.64$  5.51$  6.98$
|648>   Q  -1.3290  17.15$  4.8$  6.79$
|649>   Q  0.6645  5.5$  19.18$  5.55$
|650>   Q  0.6645  5.88$  19.34$  4.08$
|651>   Q  -1.3290  5.89$  18.97$  4.83$
|652>   Q  0.6645  14.42$  21.85$  7.41$
|653>   Q  0.6645  13.16$  20.85$  7.33$
|654>   Q  -1.3290  13.67$  21.46$  7.67$
|655>   Q  0.6645  12.75$  12.34$  17.54$
|656>   Q  0.6645  12.69$  11.42$  16.25$
|657>   Q  -1.3290  13.01$  11.75$  16.97$
|658> *
|659> 
|660>                          ****END OF INPUT****
================================================================================

                     *******************************
                     * Energy+Gradient Calculation *
                     *******************************

---------------------------------
CARTESIAN COORDINATES (ANGSTROEM)
---------------------------------
  C     10.540000   11.800000    9.730000
  H      9.470000   12.110000    9.910000
  H     10.570000   10.780000    9.320000
  C     11.220000   11.850000   11.100000
  H     12.320000   11.680000   11.130000
  H     11.130000   12.930000   11.390000
  C     10.560000   10.980000   12.110000
  H      9.460000   11.120000   12.040000
  H     10.900000   11.280000   13.130000
  C     11.050000    9.550000   12.020000
  H     12.140000    9.550000   12.280000
  H     10.880000    9.040000   11.080000
  O     10.300000    8.860000   13.030000
  H     10.660000    9.250000   13.870000
  O     11.170000   12.780000    8.820000
  H     10.740000   12.630000    7.910000
  O     11.390000    7.830000   16.370000
  H     11.600000    7.550000   17.260000
  H     11.330000    7.070000   15.800000
  O      9.490000    8.860000    7.880000
  H      8.760000    8.650000    8.500000
  H      9.200000    9.540000    7.300000
  O      8.440000    7.050000   12.220000
  H      9.070000    6.430000   11.880000
  H      9.090000    7.660000   12.600000
  O     13.770000    9.210000   11.020000
  H     14.490000    8.820000   10.470000
  H     14.150000    9.400000   11.900000
  O     12.560000   11.130000    5.890000
  H     12.700000   11.050000    6.860000
  H     12.210000   10.230000    5.600000
  O     12.330000    9.390000    8.690000
  H     12.580000    9.290000    9.630000
  H     11.420000    9.150000    8.620000
  O     10.830000    7.510000    5.960000
  H     10.120000    7.760000    6.610000
  H     10.560000    6.740000    5.440000
  O     10.290000   15.720000   11.590000
  H     10.280000   16.630000   11.910000
  H      9.590000   15.290000   12.100000
  O     12.960000    6.530000   19.150000
  H     13.160000    5.590000   18.890000
  H     12.460000    6.490000   19.990000
  O     11.660000   10.220000   15.090000
  H     11.530000    9.370000   15.520000
  H     10.880000   10.800000   15.300000
  O     10.440000    5.780000   10.650000
  H     11.350000    6.060000   10.650000
  H     10.470000    4.830000   10.640000
  O     16.790000    9.890000   10.440000
  H     17.360000    9.090000   10.650000
  H     16.640000   10.160000   11.350000
  O     15.430000    9.320000   13.230000
  H     14.900000    9.110000   13.930000
  H     16.140000    9.730000   13.680000
  O      7.570000    8.090000    9.780000
  H      7.980000    7.640000   10.550000
  H      6.650000    7.790000    9.690000
  O     10.740000   15.370000    8.920000
  H     10.480000   15.260000    9.810000
  H     11.030000   14.440000    8.730000
  O     13.960000   12.840000    8.740000
  H     12.990000   12.740000    8.920000
  H     14.390000   12.800000    9.600000
  O     13.280000    6.210000   10.800000
  H     14.110000    6.690000   10.790000
  H     13.220000    5.570000   11.520000
  O     15.040000    8.830000    8.460000
  H     15.660000    9.500000    8.810000
  H     14.020000    9.020000    8.460000
  O     16.300000    6.680000    9.330000
  H     17.180000    6.480000    9.630000
  H     16.050000    7.610000    9.250000
  O     14.120000    7.970000   15.340000
  H     14.550000    8.070000   16.180000
  H     13.230000    8.040000   15.530000
  O      9.890000   11.670000    6.450000
  H      9.320000   12.330000    6.060000
  H     10.710000   11.560000    5.910000
  O     11.620000    9.230000    4.100000
  H     11.280000    8.540000    4.720000
  H     11.440000    8.760000    3.270000
  O      6.370000    9.050000   12.790000
  H      5.460000    9.150000   12.480000
  H      6.950000    8.600000   12.090000
  O     15.450000   11.150000    4.880000
  H     15.710000   11.820000    4.220000
  H     14.490000   11.470000    5.040000
  O     10.680000    5.770000   14.620000
  H      9.820000    5.380000   14.670000
  H     11.150000    5.260000   13.970000
  O      7.700000   13.020000   12.680000
  H      7.520000   13.710000   12.010000
  H      8.380000   13.290000   13.340000
  O     11.950000   14.070000    4.900000
  H     11.340000   13.830000    4.140000
  H     12.260000   13.190000    5.210000
  O     13.840000   13.940000   12.760000
  H     12.940000   13.990000   13.170000
  H     14.090000   14.890000   12.700000
  O      8.490000    8.080000   16.430000
  H      9.370000    8.370000   16.110000
  H      7.920000    8.760000   16.000000
  Q      0.150000   13.960000    8.540000
  Q      1.720000   14.020000    8.040000
  Q      0.900000   13.690000    8.140000
  Q      2.320000    7.550000   15.100000
  Q      1.520000    8.610000   14.700000
  Q      2.150000    8.330000   15.130000
  Q     14.760000   14.690000    8.900000
  Q     14.390000   16.140000    9.150000
  Q     14.750000   15.500000    8.740000
  Q      6.520000   13.760000    4.300000
  Q      5.260000   14.750000    4.170000
  Q      5.710000   14.010000    4.050000
  Q     12.340000    3.770000   17.800000
  Q     13.730000    4.150000   17.240000
  Q     13.160000    4.040000   17.840000
  Q     14.620000   16.700000    1.600000
  Q     14.460000   16.190000    3.030000
  Q     14.330000   16.210000    2.180000
  Q      4.050000   11.390000   13.480000
  Q      3.000000   10.860000   14.510000
  Q      3.700000   11.260000   14.240000
  Q      9.280000    6.410000   19.690000
  Q      8.850000    7.720000   18.950000
  Q      9.180000    7.250000   19.570000
  Q     15.710000   13.820000   15.660000
  Q     15.080000   13.870000   14.250000
  Q     15.720000   13.890000   14.820000
  Q      2.190000    7.930000    7.500000
  Q      3.680000    7.970000    7.150000
  Q      2.980000    8.160000    7.590000
  Q      7.800000   15.720000   17.710000
  Q      8.500000   16.200000   16.500000
  Q      8.470000   15.830000   17.250000
  Q      4.950000   15.610000   13.800000
  Q      6.310000   16.190000   13.490000
  Q      5.480000   16.170000   13.420000
  Q     16.030000   11.430000    1.620000
  Q     15.610000    9.880000    2.120000
  Q     16.150000   10.570000    1.840000
  Q     14.750000    1.440000   11.250000
  Q     15.500000    1.980000   12.420000
  Q     15.080000    2.030000   11.710000
  Q     12.480000   13.760000   19.220000
  Q     11.160000   13.140000   19.090000
  Q     11.810000   13.530000   18.800000
  Q      4.160000    8.450000   16.230000
  Q      5.180000    7.480000   15.830000
  Q      4.830000    8.000000   16.370000
  Q      6.460000   18.680000   16.320000
  Q      7.720000   18.270000   15.650000
  Q      7.280000   18.680000   16.200000
  Q     13.360000    9.260000    0.770000
  Q     13.330000    9.760000   -0.600000
  Q     13.280000    9.850000    0.210000
  Q     16.420000   14.960000   17.440000
  Q     14.920000   15.120000   16.950000
  Q     15.560000   14.800000   17.420000
  Q     15.060000   17.010000    5.420000
  Q     13.640000   16.360000    5.490000
  Q     14.310000   16.760000    5.130000
  Q      9.300000   21.000000   16.270000
  Q     10.220000   19.780000   16.150000
  Q      9.850000   20.500000   15.870000
  Q      3.740000   15.620000   10.840000
  Q      4.550000   16.540000   11.760000
  Q      4.110000   16.330000   11.070000
  Q     15.580000   17.580000   15.410000
  Q     14.590000   18.620000   16.240000
  Q     14.820000   17.950000   15.640000
  Q     11.910000   18.650000    8.090000
  Q     10.970000   19.480000    7.230000
  Q     11.710000   19.190000    7.480000
  Q     10.640000    2.040000   11.920000
  Q     11.450000    1.260000   13.030000
  Q     10.980000    1.900000   12.710000
  Q     16.410000    7.680000   13.420000
  Q     16.790000    6.220000   12.920000
  Q     16.920000    6.990000   13.260000
  Q     16.050000    9.530000    5.320000
  Q     15.710000    8.950000    6.640000
  Q     16.090000    8.940000    5.890000
  Q      4.450000    8.840000   10.320000
  Q      3.500000    9.910000   10.630000
  Q      4.280000    9.630000   10.500000
  Q     10.350000    2.060000   15.900000
  Q     11.370000    1.620000   17.070000
  Q     10.980000    2.160000   16.520000
  Q     17.210000   19.830000    6.810000
  Q     17.060000   18.610000    7.770000
  Q     16.910000   19.390000    7.510000
  Q     14.310000    2.460000   15.320000
  Q     12.700000    2.480000   15.740000
  Q     13.480000    2.760000   15.410000
  Q      7.050000    4.950000    3.880000
  Q      7.500000    4.830000    2.460000
  Q      7.330000    5.240000    3.160000
  Q      8.810000   21.030000   13.990000
  Q      8.620000   21.890000   12.690000
  Q      8.690000   21.180000   13.150000
  Q      6.620000   20.840000    6.830000
  Q      7.510000   20.030000    5.900000
  Q      7.270000   20.720000    6.320000
  Q      4.860000    6.480000   10.480000
  Q      4.000000    6.830000    9.260000
  Q      4.670000    6.880000    9.740000
  Q      6.690000   14.160000    0.670000
  Q      6.620000   15.120000   -0.510000
  Q      6.930000   14.820000    0.210000
  Q     13.910000    6.670000    5.770000
  Q     15.210000    7.280000    5.300000
  Q     14.580000    6.690000    5.290000
  Q      7.650000   10.500000   18.510000
  Q      9.100000   10.950000   18.980000
  Q      8.300000   11.070000   18.680000
  Q     13.220000    8.640000   18.980000
  Q     13.210000   10.050000   18.590000
  Q     13.140000    9.470000   19.150000
  Q     16.000000    7.750000   18.360000
  Q     15.600000    9.270000   18.020000
  Q     15.710000    8.420000   17.890000
  Q     14.310000   14.860000   20.040000
  Q     14.510000   13.280000   20.200000
  Q     14.160000   14.070000   20.340000
  Q     17.900000    8.020000    6.340000
  Q     19.050000    7.550000    5.740000
  Q     18.570000    7.620000    6.360000
  Q      6.960000    0.120000   16.740000
  Q      7.990000    1.030000   16.110000
  Q      7.680000    0.540000   16.720000
  Q      4.160000   14.900000    7.450000
  Q      4.230000   13.360000    7.680000
  Q      3.910000   14.140000    7.750000
  Q     15.850000    4.160000   11.720000
  Q     16.010000    5.290000   10.830000
  Q     16.140000    4.920000   11.530000
  Q     16.020000   16.180000    7.280000
  Q     17.420000   15.910000    6.790000
  Q     16.750000   16.390000    6.900000
  Q      9.140000    2.080000    7.080000
  Q      8.640000    3.180000    8.020000
  Q      8.660000    2.420000    7.650000
  Q      9.250000   19.040000   12.910000
  Q      8.330000   18.120000   12.080000
  Q      8.950000   18.310000   12.640000
  Q     15.240000   13.610000   11.390000
  Q     16.450000   12.900000   10.920000
  Q     15.790000   13.400000   10.840000
  Q     13.800000    3.310000   10.410000
  Q     13.660000    2.480000    9.130000
  Q     13.570000    3.160000    9.600000
  Q      4.850000    7.100000    5.210000
  Q      5.330000    6.290000    6.420000
  Q      4.760000    6.600000    5.910000
  Q     17.010000   18.510000   12.590000
  Q     16.320000   18.910000   11.280000
  Q     16.640000   18.370000   11.860000
  Q      3.960000   13.280000   14.660000
  Q      3.710000   14.360000   15.620000
  Q      3.950000   14.070000   14.910000
  Q      6.440000   10.440000   16.010000
  Q      6.940000   10.080000   14.600000
  Q      7.010000   10.280000   15.420000
  Q     11.470000   14.810000    2.160000
  Q     11.010000   13.340000    1.810000
  Q     11.000000   14.100000    2.220000
  Q      7.640000    7.200000    6.290000
  Q      8.020000    6.170000    7.320000
  Q      7.540000    6.520000    6.710000
  Q      8.610000    9.000000    4.220000
  Q      7.270000    9.170000    4.910000
  Q      7.990000    8.780000    4.740000
  Q      7.690000    1.240000    8.800000
  Q      6.380000    0.600000    9.390000
  Q      7.230000    0.720000    9.310000
  Q     10.160000   10.270000    3.110000
  Q      8.710000   10.670000    3.610000
  Q      9.300000   10.300000    3.120000
  Q      4.200000   17.880000   10.050000
  Q      3.220000   18.720000    9.270000
  Q      3.970000   18.460000    9.450000
  Q      8.140000    2.920000   14.750000
  Q      9.090000    1.880000   14.010000
  Q      8.600000    2.190000   14.660000
  Q      4.400000   16.890000    6.180000
  Q      3.760000   17.090000    7.580000
  Q      4.330000   16.730000    7.020000
  Q      9.010000   17.870000    5.190000
  Q     10.010000   17.500000    6.380000
  Q      9.310000   17.830000    6.020000
  Q     12.670000   15.940000   17.030000
  Q     13.470000   16.600000   15.880000
  Q     13.100000   15.950000   16.310000
  Q      1.840000   14.550000   14.370000
  Q      0.490000   15.200000   13.760000
  Q      1.030000   14.740000   14.290000
  Q     12.180000    6.780000    7.330000
  Q     12.900000    6.390000    8.640000
  Q     12.670000    6.320000    7.830000
  Q      8.600000   10.950000   15.790000
  Q      9.060000   11.630000   17.040000
  Q      9.130000   11.410000   16.230000
  Q     11.620000   21.110000   14.620000
  Q     13.050000   21.820000   14.200000
  Q     12.210000   21.580000   14.140000
  Q      9.860000   14.430000   14.520000
  Q      9.080000   13.400000   15.390000
  Q      9.210000   13.970000   14.760000
  Q     16.850000    6.130000   19.950000
  Q     17.940000    6.180000   19.020000
  Q     17.170000    6.030000   19.220000
  Q     13.860000    8.350000    2.960000
  Q     14.910000    7.760000    1.960000
  Q     14.450000    8.330000    2.350000
  Q     10.230000   21.220000    7.810000
  Q      8.980000   20.940000    6.930000
  Q      9.790000   21.140000    7.100000
  Q     19.380000   11.860000    7.750000
  Q     17.860000   11.710000    7.750000
  Q     18.640000   11.590000    8.050000
  Q      6.980000   20.780000   12.230000
  Q      6.450000   20.980000   10.790000
  Q      6.440000   20.640000   11.580000
  Q      6.880000    3.230000   10.950000
  Q      5.690000    4.010000   10.730000
  Q      6.380000    3.640000   10.450000
  Q     17.970000    7.400000   14.850000
  Q     17.720000    8.130000   16.300000
  Q     18.180000    7.650000   15.700000
  Q      7.090000   14.670000    9.930000
  Q      6.690000   15.860000   10.990000
  Q      7.080000   15.120000   10.680000
  Q     14.570000   14.050000    2.990000
  Q     14.420000   14.620000    4.370000
  Q     14.820000   14.220000    3.780000
  Q      5.190000    5.310000   18.280000
  Q      4.500000    6.620000   17.960000
  Q      4.540000    5.830000   18.260000
  Q      3.360000    9.200000    4.580000
  Q      2.750000    9.650000    5.990000
  Q      3.170000    9.750000    5.250000
  Q      5.150000   19.640000    8.020000
  Q      4.410000   20.630000    7.100000
  Q      4.950000   20.010000    7.290000
  Q     11.110000   20.110000   11.090000
  Q     11.970000   20.390000   12.450000
  Q     11.690000   19.990000   11.720000
  Q     15.330000   16.020000   18.650000
  Q     15.930000   16.850000   19.720000
  Q     15.280000   16.530000   19.290000
  Q      4.740000   17.510000   15.130000
  Q      3.830000   17.370000   16.300000
  Q      4.310000   17.810000   15.780000
  Q      5.280000   17.050000    4.110000
  Q      3.910000   16.580000    3.710000
  Q      4.600000   16.550000    4.190000
  Q     12.190000   16.720000    9.440000
  Q     12.950000   17.750000   10.270000
  Q     12.750000   17.330000    9.570000
  Q      6.340000   16.830000    1.820000
  Q      6.780000   18.180000    2.450000
  Q      6.230000   17.650000    2.090000
  Q      8.030000    6.130000   15.620000
  Q      7.760000    4.790000   16.130000
  Q      7.870000    5.330000   15.530000
  Q     12.160000   19.470000    2.650000
  Q     11.730000   19.420000    1.130000
  Q     11.670000   19.270000    1.980000
  Q      1.840000   12.030000    7.980000
  Q      2.150000   10.690000    8.670000
  Q      2.070000   11.220000    8.000000
  Q     18.260000    9.670000   15.210000
  Q     18.030000   11.140000   14.680000
  Q     17.830000   10.340000   14.860000
  Q     20.510000   14.760000    9.460000
  Q     19.990000   13.610000   10.230000
  Q     20.560000   14.180000   10.050000
  Q     15.380000    7.980000   20.810000
  Q     14.320000    6.960000   20.280000
  Q     14.980000    7.210000   20.780000
  Q      7.860000    4.750000    9.190000
  Q      9.270000    5.380000    9.170000
  Q      8.660000    4.860000    8.900000
  Q     11.480000   10.520000   19.660000
  Q     10.920000   11.340000   20.840000
  Q     10.940000   11.060000   20.040000
  Q     18.580000   16.010000   17.410000
  Q     18.220000   15.850000   15.950000
  Q     18.300000   15.600000   16.740000
  Q      8.750000    8.490000   -0.660000
  Q      8.720000    9.840000    0.230000
  Q      8.830000    8.990000    0.060000
  Q      3.900000   12.790000    4.270000
  Q      2.770000   11.690000    4.610000
  Q      3.160000   12.360000    4.180000
  Q     12.080000   15.080000   14.800000
  Q     11.680000   15.530000   13.530000
  Q     11.750000   14.950000   14.080000
  Q     18.940000    4.780000   10.080000
  Q     19.670000    5.730000    9.150000
  Q     19.100000    5.520000    9.700000
  Q      0.400000   13.290000   11.120000
  Q      1.820000   13.080000   11.320000
  Q      1.030000   12.860000   11.400000
  Q     20.450000    8.490000    9.690000
  Q     21.560000    7.440000    9.170000
  Q     21.220000    8.000000    9.720000
  Q      9.440000    3.250000   19.470000
  Q      9.900000    4.070000   18.250000
  Q      9.540000    3.920000   18.980000
  Q      7.280000   11.940000   22.080000
  Q      7.770000   11.790000   20.650000
  Q      7.790000   11.640000   21.500000
  Q     12.140000    3.600000   12.650000
  Q     13.440000    4.200000   13.200000
  Q     12.720000    4.210000   12.810000
  Q      5.180000    2.890000   13.690000
  Q      5.150000    1.970000   12.450000
  Q      5.530000    2.430000   13.080000
  Q      4.010000   13.370000   11.120000
  Q      3.700000   13.990000    9.670000
  Q      3.560000   13.780000   10.520000
  Q      3.070000   11.110000   19.160000
  Q      3.100000    9.550000   19.140000
  Q      3.380000   10.350000   18.920000
  Q     18.750000   15.100000   12.030000
  Q     18.930000   14.360000   13.290000
  Q     18.960000   15.010000   12.810000
  Q      1.820000    5.330000   12.680000
  Q      2.130000    4.060000   13.450000
  Q      2.300000    4.800000   13.130000
  Q     16.380000   10.730000   16.560000
  Q     14.910000   11.290000   17.030000
  Q     15.770000   11.090000   17.070000
  Q     17.510000   13.240000   14.640000
  Q     18.590000   13.120000   15.780000
  Q     18.300000   13.090000   14.970000
  Q     21.050000   10.960000   11.990000
  Q     20.060000    9.960000   12.520000
  Q     20.420000   10.710000   12.460000
  Q     19.090000    7.850000   11.200000
  Q     18.450000    7.750000   12.520000
  Q     18.930000    8.120000   11.940000
  Q     14.240000   13.410000    0.490000
  Q     13.890000   12.220000    1.290000
  Q     14.270000   12.940000    1.160000
  Q     11.440000   18.530000   13.180000
  Q     11.960000   17.840000   14.510000
  Q     11.810000   17.940000   13.680000
  Q      5.890000    7.520000   20.740000
  Q      5.630000    7.360000   22.250000
  Q      5.430000    7.320000   21.430000
  Q     11.590000   16.310000   18.970000
  Q     10.540000   15.750000   17.990000
  Q     11.140000   16.270000   18.240000
  Q      8.510000   16.940000   13.930000
  Q      8.020000   15.580000   14.620000
  Q      8.030000   16.430000   14.420000
  Q     17.310000    4.820000   16.450000
  Q     17.810000    3.290000   16.500000
  Q     17.570000    4.040000   16.130000
  Q      6.960000   12.350000    5.740000
  Q      7.600000   13.740000    6.340000
  Q      7.500000   13.030000    5.800000
  Q      5.930000   12.200000   12.320000
  Q      5.200000   11.160000   11.420000
  Q      5.270000   11.820000   11.980000
  Q     14.130000    4.280000    7.540000
  Q     14.640000    4.600000    6.150000
  Q     14.440000    4.100000    6.800000
  Q      8.770000   14.910000    7.800000
  Q      7.410000   15.530000    7.950000
  Q      7.930000   14.890000    7.790000
  Q      7.530000    3.990000   18.470000
  Q      6.210000    3.500000   17.710000
  Q      6.780000    4.090000   18.010000
  Q     16.760000   15.520000   14.490000
  Q     17.770000   16.250000   13.760000
  Q     17.140000   16.200000   14.290000
  Q     19.000000    8.340000    8.090000
  Q     18.680000    9.670000    8.640000
  Q     18.950000    8.890000    8.710000
  Q      7.360000    2.920000    5.860000
  Q      7.180000    4.450000    6.180000
  Q      7.060000    3.700000    5.770000
  Q     11.410000    6.620000    0.640000
  Q     11.380000    5.300000   -0.280000
  Q     11.700000    6.010000    0.070000
  Q     21.470000    7.360000   13.450000
  Q     20.720000    8.460000   14.230000
  Q     21.410000    8.050000   13.970000
  Q     12.190000    4.740000    6.170000
  Q     11.570000    3.370000    5.660000
  Q     11.770000    4.240000    5.620000
  Q     10.100000    2.810000    9.240000
  Q     11.570000    2.990000    9.640000
  Q     10.750000    2.760000    9.770000
  Q      6.000000   12.980000    2.450000
  Q      5.500000   11.850000    1.530000
  Q      5.960000   12.530000    1.750000
  Q      7.380000    1.900000   12.530000
  Q      7.720000    1.410000   11.070000
  Q      7.890000    1.640000   11.860000
  Q      4.380000   11.060000   17.410000
  Q      4.710000   11.480000   15.970000
  Q      4.770000   11.530000   16.790000
  Q     18.010000   15.420000    4.380000
  Q     16.700000   15.130000    3.690000
  Q     17.450000   15.470000    3.750000
  Q     14.930000   17.190000   12.900000
  Q     13.420000   17.100000   12.930000
  Q     14.220000   16.840000   12.730000
  Q     17.170000   13.910000    7.060000
  Q     18.630000   13.850000    6.530000
  Q     17.820000   14.080000    6.550000
  Q     15.970000   11.660000   19.070000
  Q     15.690000   10.810000   20.340000
  Q     15.790000   11.560000   19.900000
  Q      8.500000   15.960000    0.320000
  Q      9.840000   16.430000    0.760000
  Q      9.040000   16.520000    0.620000
  Q     17.800000   14.730000   10.140000
  Q     17.140000   16.140000   10.630000
  Q     17.770000   15.600000   10.440000
  Q     14.440000    6.030000   14.800000
  Q     14.050000    4.600000   15.100000
  Q     14.560000    5.210000   14.910000
  Q      6.620000    6.320000   14.090000
  Q      6.060000    7.680000   13.610000
  Q      6.050000    6.920000   14.040000
  Q     18.430000   11.870000   10.680000
  Q     19.030000   12.120000   12.030000
  Q     18.580000   12.340000   11.350000
  Q     11.400000   17.320000    1.620000
  Q     12.690000   16.380000    1.320000
  Q     11.850000   16.640000    1.240000
  Q      1.300000   10.980000   10.680000
  Q      0.950000    9.480000   10.380000
  Q      1.470000   10.170000   10.440000
  Q     15.410000   12.350000    7.870000
  Q     16.040000   11.970000    6.530000
  Q     16.030000   12.150000    7.370000
  Q      9.160000    5.700000    3.820000
  Q     10.460000    5.050000    4.060000
  Q      9.990000    5.650000    3.790000
  Q      8.740000   18.650000   17.610000
  Q      9.760000   17.720000   18.300000
  Q      9.210000   18.380000   18.250000
  Q      7.440000   17.850000    7.230000
  Q      5.940000   17.420000    7.570000
  Q      6.770000   17.620000    7.740000
  Q      6.960000   17.780000    9.980000
  Q      6.690000   18.760000   11.120000
  Q      6.990000   18.030000   10.780000
  Q      2.500000   17.440000   10.810000
  Q      1.180000   17.180000   11.450000
  Q      1.710000   17.580000   10.950000
  Q     11.670000   10.610000    1.130000
  Q     10.160000   11.010000    1.240000
  Q     11.000000   11.120000    1.310000
  Q      5.830000    8.470000   18.380000
  Q      5.570000    9.660000   19.310000
  Q      6.020000    9.020000   19.000000
  Q      8.830000   17.440000    2.360000
  Q      9.590000   18.720000    2.580000
  Q      8.990000   18.150000    2.760000
  Q      7.510000    8.370000    1.300000
  Q      7.100000    7.130000    2.240000
  Q      6.970000    7.840000    1.780000
  Q     13.420000   18.590000    4.700000
  Q     12.330000   19.450000    5.070000
  Q     13.000000   19.280000    4.640000
  Q      5.410000    3.410000    7.120000
  Q      5.310000    3.770000    8.590000
  Q      5.000000    3.580000    7.830000
  Q     10.290000   22.170000   10.190000
  Q      9.340000   21.020000    9.820000
  Q     10.090000   21.430000    9.810000
  Q     10.560000    7.000000    2.540000
  Q     10.220000    8.120000    1.520000
  Q     10.730000    7.580000    1.940000
  Q      4.080000    4.970000   12.230000
  Q      5.160000    5.850000   12.530000
  Q      4.730000    5.470000   12.010000
  Q     11.650000   15.970000    7.140000
  Q     11.580000   15.600000    5.680000
  Q     11.640000   16.130000    6.340000
  Q     12.740000   19.140000   17.160000
  Q     11.630000   18.170000   17.330000
  Q     12.010000   18.820000   16.990000
  Q      4.910000   10.610000    8.730000
  Q      3.950000   10.980000    7.720000
  Q      4.640000   11.060000    8.110000
  Q     15.510000   20.750000   14.620000
  Q     14.720000   19.910000   13.530000
  Q     14.880000   20.530000   14.100000
  Q     16.590000    1.500000   14.820000
  Q     16.510000    3.120000   14.870000
  Q     16.260000    2.300000   14.640000
  Q      2.790000   13.740000   18.390000
  Q      4.090000   13.160000   17.760000
  Q      3.570000   13.760000   18.040000
  Q      5.590000    8.090000    3.130000
  Q      4.230000    7.320000    3.200000
  Q      4.780000    7.910000    3.430000
  Q     12.870000   20.910000   10.750000
  Q     13.350000   21.500000    9.390000
  Q     13.300000   21.460000   10.260000
  Q      4.820000    4.620000   15.360000
  Q      4.570000    3.250000   16.210000
  Q      4.660000    3.790000   15.530000
  Q     16.060000   20.340000    9.130000
  Q     15.080000   20.840000   10.170000
  Q     15.800000   20.560000    9.930000
  Q      5.180000   10.640000    5.140000
  Q      5.760000   10.560000    6.520000
  Q      5.830000   10.590000    5.690000
  Q     16.340000    4.520000    7.060000
  Q     17.640000    5.510000    6.980000
  Q     17.150000    4.800000    6.790000
  Q      5.500000   19.180000    5.550000
  Q      5.880000   19.340000    4.080000
  Q      5.890000   18.970000    4.830000
  Q     14.420000   21.850000    7.410000
  Q     13.160000   20.850000    7.330000
  Q     13.670000   21.460000    7.670000
  Q     12.750000   12.340000   17.540000
  Q     12.690000   11.420000   16.250000
  Q     13.010000   11.750000   16.970000

----------------------------
CARTESIAN COORDINATES (A.U.)
----------------------------
  NO LB      ZA    FRAG     MASS         X           Y           Z
   0 C     6.0000    0    12.011   19.917713   22.298768   18.387035
   1 H     1.0000    0     1.008   17.895706   22.884583   18.727186
   2 H     1.0000    0     1.008   19.974405   20.371248   17.612248
   3 C     6.0000    0    12.011   21.202727   22.393255   20.975960
   4 H     1.0000    0     1.008   23.281426   22.072001   21.032652
   5 H     1.0000    0     1.008   21.032652   24.434159   21.523981
   6 C     6.0000    0    12.011   19.955508   20.749193   22.884583
   7 H     1.0000    0     1.008   17.876809   21.013755   22.752303
   8 H     1.0000    0     1.008   20.598015   21.316111   24.812104
   9 C     6.0000    0    12.011   20.881474   18.046885   22.714508
  10 H     1.0000    0     1.008   22.941275   18.046885   23.205837
  11 H     1.0000    0     1.008   20.560220   17.083124   20.938166
  12 O     8.0000    0    15.999   19.464179   16.742974   24.623132
  13 H     1.0000    0     1.008   20.144481   17.479967   26.210501
  14 O     8.0000    0    15.999   21.108241   24.150700   16.667385
  15 H     1.0000    0     1.008   20.295659   23.867241   14.947734
  16 O     8.0000    0    15.999   21.523981   14.796556   30.934817
  17 H     1.0000    0     1.008   21.920823   14.267432   32.616673
  18 H     1.0000    0     1.008   21.410597   13.360364   29.857673
  19 O     8.0000    0    15.999   17.933501   16.742974   14.891042
  20 H     1.0000    0     1.008   16.554001   16.346131   16.062672
  21 H     1.0000    0     1.008   17.385480   18.027987   13.795001
  22 O     8.0000    0    15.999   15.949289   13.322569   23.092453
  23 H     1.0000    0     1.008   17.139816   12.150939   22.449946
  24 H     1.0000    0     1.008   17.177611   14.475302   23.810549
  25 O     8.0000    0    15.999   26.021529   17.404378   20.824782
  26 H     1.0000    0     1.008   27.382132   16.667385   19.785433
  27 H     1.0000    0     1.008   26.739625   17.763426   22.487741
  28 O     8.0000    0    15.999   23.734960   21.032652   11.130487
  29 H     1.0000    0     1.008   23.999522   20.881474   12.963521
  30 H     1.0000    0     1.008   23.073556   19.331898   10.582466
  31 O     8.0000    0    15.999   23.300323   17.744528   16.421720
  32 H     1.0000    0     1.008   23.772755   17.555556   18.198063
  33 H     1.0000    0     1.008   21.580672   17.290994   16.289439
  34 O     8.0000    0    15.999   20.465734   14.191843   11.262768
  35 H     1.0000    0     1.008   19.124028   14.664275   12.491090
  36 H     1.0000    0     1.008   19.955508   12.736754   10.280110
  37 O     8.0000    0    15.999   19.445282   29.706495   21.901926
  38 H     1.0000    0     1.008   19.426385   31.426146   22.506638
  39 H     1.0000    0     1.008   18.122474   28.893913   22.865686
  40 O     8.0000    0    15.999   24.490851   12.339912   36.188255
  41 H     1.0000    0     1.008   24.868796   10.563569   35.696927
  42 H     1.0000    0     1.008   23.545988   12.264323   37.775625
  43 O     8.0000    0    15.999   22.034207   19.313001   28.515967
  44 H     1.0000    0     1.008   21.788542   17.706734   29.328550
  45 H     1.0000    0     1.008   20.560220   20.409042   28.912810
  46 O     8.0000    0    15.999   19.728741   10.922617   20.125583
  47 H     1.0000    0     1.008   21.448392   11.451740   20.125583
  48 H     1.0000    0     1.008   19.785433    9.127377   20.106686
  49 O     8.0000    0    15.999   31.728502   18.689391   19.728741
  50 H     1.0000    0     1.008   32.805646   17.177611   20.125583
  51 H     1.0000    0     1.008   31.445043   19.199618   21.448392
  52 O     8.0000    0    15.999   29.158474   17.612248   25.001077
  53 H     1.0000    0     1.008   28.156919   17.215405   26.323885
  54 H     1.0000    0     1.008   30.500180   18.387035   25.851454
  55 O     8.0000    0    15.999   14.305227   15.287884   18.481522
  56 H     1.0000    0     1.008   15.080015   14.437508   19.936611
  57 H     1.0000    0     1.008   12.566679   14.720967   18.311446
  58 O     8.0000    0    15.999   20.295659   29.045091   16.856357
  59 H     1.0000    0     1.008   19.804330   28.837221   18.538213
  60 H     1.0000    0     1.008   20.843679   27.287645   16.497309
  61 O     8.0000    0    15.999   26.380577   24.264084   16.516206
  62 H     1.0000    0     1.008   24.547542   24.075111   16.856357
  63 H     1.0000    0     1.008   27.193159   24.188495   18.141371
  64 O     8.0000    0    15.999   25.095563   11.735199   20.409042
  65 H     1.0000    0     1.008   26.664036   12.642268   20.390145
  66 H     1.0000    0     1.008   24.982179   10.525775   21.769645
  67 O     8.0000    0    15.999   28.421481   16.686282   15.987083
  68 H     1.0000    0     1.008   29.593111   17.952398   16.648487
  69 H     1.0000    0     1.008   26.493960   17.045330   15.987083
  70 O     8.0000    0    15.999   30.802536   12.623371   17.631145
  71 H     1.0000    0     1.008   32.465495   12.245425   18.198063
  72 H     1.0000    0     1.008   30.330104   14.380816   17.479967
  73 O     8.0000    0    15.999   26.682933   15.061117   28.988399
  74 H     1.0000    0     1.008   27.495515   15.250090   30.575769
  75 H     1.0000    0     1.008   25.001077   15.193398   29.347447
  76 O     8.0000    0    15.999   18.689391   22.053104   12.188734
  77 H     1.0000    0     1.008   17.612248   23.300323   11.451740
  78 H     1.0000    0     1.008   20.238967   21.845234   11.168281
  79 O     8.0000    0    15.999   21.958618   17.442172    7.747877
  80 H     1.0000    0     1.008   21.316111   16.138261    8.919507
  81 H     1.0000    0     1.008   21.618467   16.554001    6.179404
  82 O     8.0000    0    15.999   12.037555   17.102022   24.169597
  83 H     1.0000    0     1.008   10.317905   17.290994   23.583782
  84 H     1.0000    0     1.008   13.133597   16.251645   22.846789
  85 O     8.0000    0    15.999   29.196269   21.070446    9.221864
  86 H     1.0000    0     1.008   29.687598   22.336563    7.974644
  87 H     1.0000    0     1.008   27.382132   21.675159    9.524220
  88 O     8.0000    0    15.999   20.182275   10.903720   27.627796
  89 H     1.0000    0     1.008   18.557111   10.166727   27.722282
  90 H     1.0000    0     1.008   21.070446    9.939959   26.399474
  91 O     8.0000    0    15.999   14.550891   24.604234   23.961727
  92 H     1.0000    0     1.008   14.210741   25.908145   22.695611
  93 H     1.0000    0     1.008   15.835905   25.114460   25.208947
  94 O     8.0000    0    15.999   22.582227   26.588447    9.259658
  95 H     1.0000    0     1.008   21.429494   26.134912    7.823466
  96 H     1.0000    0     1.008   23.168042   24.925488    9.845473
  97 O     8.0000    0    15.999   26.153810   26.342782   24.112905
  98 H     1.0000    0     1.008   24.453056   26.437269   24.887693
  99 H     1.0000    0     1.008   26.626241   28.138022   23.999522
 100 O     8.0000    0    15.999   16.043775   15.268987   31.048200
 101 H     1.0000    0     1.008   17.706734   15.817008   30.443488
 102 H     1.0000    0     1.008   14.966631   16.554001   30.235618
 103 Q     0.6645    0     0.000    0.283459   26.380577   16.138261
 104 Q     0.6645    0     0.000    3.250329   26.493960   15.193398
 105 Q    -1.3290    0     0.000    1.700754   25.870351   15.382371
 106 Q     0.6645    0     0.000    4.384165   14.267432   28.534865
 107 Q     0.6645    0     0.000    2.872384   16.270542   27.778974
 108 Q    -1.3290    0     0.000    4.062911   15.741419   28.591556
 109 Q     0.6645    0     0.000   27.892358   27.760077   16.818563
 110 Q     0.6645    0     0.000   27.193159   30.500180   17.290994
 111 Q    -1.3290    0     0.000   27.873460   29.290755   16.516206
 112 Q     0.6645    0     0.000   12.321014   26.002632    8.125822
 113 Q     0.6645    0     0.000    9.939959   27.873460    7.880158
 114 Q    -1.3290    0     0.000   10.790336   26.475063    7.653391
 115 Q     0.6645    0     0.000   23.319220    7.124268   33.637125
 116 Q     0.6645    0     0.000   25.945940    7.842363   32.578879
 117 Q    -1.3290    0     0.000   24.868796    7.634494   33.712714
 118 Q     0.6645    0     0.000   27.627796   31.558426    3.023562
 119 Q     0.6645    0     0.000   27.325440   30.594666    5.725870
 120 Q    -1.3290    0     0.000   27.079775   30.632461    4.119603
 121 Q     0.6645    0     0.000    7.653391   21.523981   25.473508
 122 Q     0.6645    0     0.000    5.669178   20.522426   27.419926
 123 Q    -1.3290    0     0.000    6.991987   21.278316   26.909700
 124 Q     0.6645    0     0.000   17.536659   12.113145   37.208708
 125 Q     0.6645    0     0.000   16.724076   14.588686   35.810310
 126 Q    -1.3290    0     0.000   17.347686   13.700514   36.981940
 127 Q     0.6645    0     0.000   29.687598   26.116015   29.593111
 128 Q     0.6645    0     0.000   28.497070   26.210501   26.928597
 129 Q    -1.3290    0     0.000   29.706495   26.248296   28.005741
 130 Q     0.6645    0     0.000    4.138500   14.985528   14.172946
 131 Q     0.6645    0     0.000    6.954192   15.061117   13.511542
 132 Q    -1.3290    0     0.000    5.631384   15.420165   14.343021
 133 Q     0.6645    0     0.000   14.739864   29.706495   33.467050
 134 Q     0.6645    0     0.000   16.062672   30.613563   31.180481
 135 Q    -1.3290    0     0.000   16.005980   29.914365   32.597776
 136 Q     0.6645    0     0.000    9.354144   29.498625   26.078221
 137 Q     0.6645    0     0.000   11.924172   30.594666   25.492406
 138 Q    -1.3290    0     0.000   10.355699   30.556872   25.360125
 139 Q     0.6645    0     0.000   30.292310   21.599570    3.061356
 140 Q     0.6645    0     0.000   29.498625   18.670494    4.006219
 141 Q    -1.3290    0     0.000   30.519077   19.974405    3.477096
 142 Q     0.6645    0     0.000   27.873460    2.721206   21.259419
 143 Q     0.6645    0     0.000   29.290755    3.741658   23.470399
 144 Q    -1.3290    0     0.000   28.497070    3.836144   22.128693
 145 Q     0.6645    0     0.000   23.583782   26.002632   36.320536
 146 Q     0.6645    0     0.000   21.089344   24.831001   36.074872
 147 Q    -1.3290    0     0.000   22.317666   25.567995   35.526851
 148 Q     0.6645    0     0.000    7.861261   15.968186   30.670255
 149 Q     0.6645    0     0.000    9.788781   14.135151   29.914365
 150 Q    -1.3290    0     0.000    9.127377   15.117809   30.934817
 151 Q     0.6645    0     0.000   12.207631   35.300084   30.840331
 152 Q     0.6645    0     0.000   14.588686   34.525296   29.574214
 153 Q    -1.3290    0     0.000   13.757206   35.300084   30.613563
 154 Q     0.6645    0     0.000   25.246741   17.498864    1.455089
 155 Q     0.6645    0     0.000   25.190049   18.443727   -1.133836
 156 Q    -1.3290    0     0.000   25.095563   18.613802    0.396842
 157 Q     0.6645    0     0.000   31.029303   28.270303   32.956824
 158 Q     0.6645    0     0.000   28.194714   28.572659   32.030858
 159 Q    -1.3290    0     0.000   29.404139   27.967947   32.919029
 160 Q     0.6645    0     0.000   28.459276   32.144242   10.242316
 161 Q     0.6645    0     0.000   25.775864   30.915920   10.374596
 162 Q    -1.3290    0     0.000   27.041981   31.671810    9.694295
 163 Q     0.6645    0     0.000   17.574453   39.684249   30.745844
 164 Q     0.6645    0     0.000   19.313001   37.378783   30.519077
 165 Q    -1.3290    0     0.000   18.613802   38.739386   29.989954
 166 Q     0.6645    0     0.000    7.067576   29.517522   20.484631
 167 Q     0.6645    0     0.000    8.598254   31.256070   22.223179
 168 Q    -1.3290    0     0.000    7.766774   30.859228   20.919268
 169 Q     0.6645    0     0.000   29.441933   33.221385   29.120680
 170 Q     0.6645    0     0.000   27.571104   35.186701   30.689152
 171 Q    -1.3290    0     0.000   28.005741   33.920584   29.555317
 172 Q     0.6645    0     0.000   22.506638   35.243392   15.287884
 173 Q     0.6645    0     0.000   20.730296   36.811865   13.662720
 174 Q    -1.3290    0     0.000   22.128693   36.263845   14.135151
 175 Q     0.6645    0     0.000   20.106686    3.855041   22.525536
 176 Q     0.6645    0     0.000   21.637364    2.381055   24.623132
 177 Q    -1.3290    0     0.000   20.749193    3.590480   24.018419
 178 Q     0.6645    0     0.000   31.010406   14.513097   25.360125
 179 Q     0.6645    0     0.000   31.728502   11.754097   24.415262
 180 Q    -1.3290    0     0.000   31.974166   13.209186   25.057769
 181 Q     0.6645    0     0.000   30.330104   18.009090   10.053343
 182 Q     0.6645    0     0.000   29.687598   16.913049   12.547782
 183 Q    -1.3290    0     0.000   30.405693   16.894152   11.130487
 184 Q     0.6645    0     0.000    8.409281   16.705179   19.501974
 185 Q     0.6645    0     0.000    6.614041   18.727186   20.087789
 186 Q    -1.3290    0     0.000    8.088028   18.198063   19.842124
 187 Q     0.6645    0     0.000   19.558665    3.892836   30.046646
 188 Q     0.6645    0     0.000   21.486186    3.061356   32.257625
 189 Q    -1.3290    0     0.000   20.749193    4.081808   31.218276
 190 Q     0.6645    0     0.000   32.522187   37.473269   12.869035
 191 Q     0.6645    0     0.000   32.238728   35.167803   14.683172
 192 Q    -1.3290    0     0.000   31.955269   36.641790   14.191843
 193 Q     0.6645    0     0.000   27.041981    4.648726   28.950604
 194 Q     0.6645    0     0.000   23.999522    4.686521   29.744289
 195 Q    -1.3290    0     0.000   25.473508    5.215644   29.120680
 196 Q     0.6645    0     0.000   13.322569    9.354144    7.332137
 197 Q     0.6645    0     0.000   14.172946    9.127377    4.648726
 198 Q    -1.3290    0     0.000   13.851693    9.902165    5.971535
 199 Q     0.6645    0     0.000   16.648487   39.740941   26.437269
 200 Q     0.6645    0     0.000   16.289439   41.366105   23.980625
 201 Q    -1.3290    0     0.000   16.421720   40.024400   24.849899
 202 Q     0.6645    0     0.000   12.509987   39.381893   12.906829
 203 Q     0.6645    0     0.000   14.191843   37.851214   11.149384
 204 Q    -1.3290    0     0.000   13.738309   39.155125   11.943069
 205 Q     0.6645    0     0.000    9.184069   12.245425   19.804330
 206 Q     0.6645    0     0.000    7.558905   12.906829   17.498864
 207 Q    -1.3290    0     0.000    8.825021   13.001316   18.405933
[...]
 341   Q   :    0.042289992   -0.168199384   -0.184866406
 342   Q   :   -0.140960969   -0.047985523    0.233543570
 343   Q   :    0.088830223    0.207567636   -0.048458192
 344   Q   :    0.064968739   -0.102520789    0.247416506
 345   Q   :   -0.188624935    0.219093653   -0.054199781
 346   Q   :    0.119016520   -0.112762849   -0.186525202
 347   Q   :   -0.184666073    0.040253338   -0.187633705
 348   Q   :    0.074412930    0.110871082    0.209175785
 349   Q   :    0.102927401   -0.168912562   -0.023678769
 350   Q   :    0.037870920   -0.174121419   -0.226702779
 351   Q   :    0.242754324    0.102902254    0.136438502
 352   Q   :   -0.275937681    0.091893270    0.098024126
 353   Q   :    0.146638939   -0.125916889   -0.218422907
 354   Q   :   -0.169731072   -0.180782105    0.179662259
 355   Q   :    0.015822244    0.307377251    0.042557276
 356   Q   :    0.210176549    0.159948157   -0.033135588
 357   Q   :   -0.237651466    0.021467607   -0.172504927
 358   Q   :    0.020153671   -0.179590811    0.197637488
 359   Q   :   -0.194081221   -0.204602061   -0.025210491
 360   Q   :    0.056696232    0.136692484    0.253953325
 361   Q   :    0.140947692    0.074289460   -0.223377896
 362   Q   :    0.044422911   -0.256885877   -0.073903327
 363   Q   :    0.188178257    0.174940136    0.128853033
 364   Q   :   -0.239823625    0.084450036   -0.058934316
 365   Q   :    0.058876643    0.279209605    0.040503022
 366   Q   :   -0.031475461   -0.200492381    0.230346502
 367   Q   :   -0.026815054   -0.088093862   -0.274851970
 368   Q   :    0.163787339    0.071699509    0.198219590
 369   Q   :    0.029043823    0.051905879   -0.274250329
 370   Q   :   -0.187111015   -0.110666046    0.069739416
 371   Q   :   -0.064402209    0.267685886    0.010587656
 372   Q   :    0.030362970   -0.158605652    0.217356045
 373   Q   :    0.035309578   -0.108588439   -0.232034657
 374   Q   :    0.134923593   -0.198852239    0.117279550
 375   Q   :    0.068965191    0.257158600   -0.054361115
 376   Q   :   -0.199316241   -0.058356233   -0.063815300
 377   Q   :   -0.037514137    0.203355608   -0.233299486
 378   Q   :   -0.222476016   -0.203450520    0.038395993
 379   Q   :    0.262682607    0.003219134    0.189852388
 380   Q   :    0.127005722    0.255971990   -0.006549548
 381   Q   :   -0.201895427   -0.060485381   -0.157030273
 382   Q   :    0.074898625   -0.191783007    0.173212299
 383   Q   :   -0.249198997   -0.024896462    0.090600295
 384   Q   :    0.187086195    0.173073808    0.089258292
 385   Q   :    0.063851308   -0.136323384   -0.179364684
 386   Q   :    0.175562891   -0.170486604   -0.117622726
 387   Q   :    0.008355657    0.092664415    0.275153811
 388   Q   :   -0.182457106    0.079640835   -0.150174897
 389   Q   :    0.096732479    0.164176966    0.238965467
 390   Q   :   -0.022367359    0.103725574   -0.262939374
 391   Q   :   -0.061723034   -0.266250071    0.026075325
 392   Q   :   -0.030051739   -0.142042684   -0.223596526
 393   Q   :   -0.036357483    0.265967558    0.043425978
 394   Q   :    0.072988561   -0.118560864    0.167781154
 395   Q   :    0.243110817    0.127563988    0.043957936
 396   Q   :   -0.108163873   -0.189962989    0.133725921
 397   Q   :   -0.144462710    0.066303808   -0.177365759
 398   Q   :    0.122978721    0.067523204    0.263563416
 399   Q   :   -0.016261649    0.237064194   -0.199461440
 400   Q   :   -0.112121189   -0.302860650   -0.064565462
 401   Q   :   -0.040764602   -0.261627876    0.120856605
 402   Q   :    0.227121143    0.063081622   -0.212705958
 403   Q   :   -0.176150020    0.192948699    0.089897854
 404   Q   :   -0.238263183    0.184044952   -0.120669352
 405   Q   :    0.270814917    0.087931323   -0.033518618
 406   Q   :   -0.043645293   -0.264165187    0.165490503
 407   Q   :   -0.193649880    0.115753023   -0.008955245
 408   Q   :    0.103707462   -0.197909489   -0.202794037
 409   Q   :    0.102079166    0.077014186    0.222624359
 410   Q   :   -0.032860515   -0.248487540    0.162897591
 411   Q   :    0.135651804    0.042499859   -0.269947300
 412   Q   :   -0.094412275    0.206814355    0.110667613
 413   Q   :   -0.205351196    0.125501040    0.205227028
 414   Q   :   -0.027533654    0.066114584   -0.260215900
 415   Q   :    0.229518106   -0.189979162    0.060783040
 416   Q   :   -0.175396683   -0.192798851   -0.051669448
 417   Q   :    0.267320771   -0.013936536    0.141853895
 418   Q   :   -0.088366699    0.204420178   -0.088583148
 419   Q   :   -0.135917133    0.152504370    0.191574198
 420   Q   :   -0.134177833   -0.140229643   -0.198775845
 421   Q   :    0.261176133   -0.012279184    0.004251744
 422   Q   :    0.143914553   -0.127552053    0.190727998
 423   Q   :    0.045891607    0.061765586   -0.225981912
 424   Q   :   -0.189118370    0.061794875    0.039608201
 425   Q   :   -0.114188571    0.248969363    0.084415230
 426   Q   :   -0.097442230   -0.235038300    0.074240227
 427   Q   :    0.200778920   -0.017945520   -0.150944159
 428   Q   :   -0.085362155    0.012321811   -0.281915695
 429   Q   :   -0.024519323   -0.259267961    0.176468577
 430   Q   :    0.122337528    0.235987283    0.100524108
 431   Q   :   -0.177931509    0.172477150   -0.156268725
 432   Q   :   -0.079632921   -0.277434575    0.108300928
 433   Q   :    0.248074538    0.104984315    0.054131875
 434   Q   :    0.180051162   -0.120575676   -0.155523159
 435   Q   :   -0.236546968    0.041398245   -0.014391383
 436   Q   :    0.067355339    0.079474679    0.162660228
 437   Q   :   -0.233155691    0.038814075   -0.090726362
 438   Q   :    0.079476347    0.004094606    0.270047038
 439   Q   :    0.171557942   -0.043727028   -0.173068413
 440   Q   :    0.233391412    0.081500032   -0.185722325
 441   Q   :   -0.118462434   -0.262248797    0.014374250
 442   Q   :   -0.103261244    0.180203207    0.177269721
 443   Q   :    0.046456767   -0.116712992   -0.294549815
 444   Q   :   -0.154835880   -0.128429243    0.184724305
 445   Q   :    0.119586957    0.248177205    0.106485698
 446   Q   :   -0.023637288    0.165964707   -0.266639237
 447   Q   :   -0.144917497   -0.261363939    0.033888304
 448   Q   :    0.166602012    0.098873682    0.226494116
 449   Q   :   -0.125077229    0.193938589   -0.142023988
 450   Q   :    0.046499509   -0.031149758    0.281514103
 451   Q   :    0.066749923   -0.156024400   -0.129953482
 452   Q   :    0.166382180    0.066835031   -0.215285364
 453   Q   :    0.086584552    0.020471061    0.288634621
 454   Q   :   -0.253620673   -0.092899960   -0.070589472
 455   Q   :    0.143188520    0.010064209    0.237899084
 456   Q   :   -0.200879442   -0.181310116   -0.074268276
 457   Q   :    0.058741276    0.158957669   -0.154657026
 458   Q   :    0.159467870    0.145324957   -0.149078821
 459   Q   :   -0.002576989   -0.246043236    0.055318385
 460   Q   :   -0.160935267    0.101339043    0.098382565
 461   Q   :   -0.078400776    0.222866648    0.111970897
 462   Q   :    0.070500841   -0.242243225    0.129129345
 463   Q   :    0.015751445    0.028042846   -0.233419042
 464   Q   :   -0.167311251   -0.199055229   -0.014208673
 465   Q   :    0.020803104    0.181884259    0.136435931
 466   Q   :    0.144462069    0.016719115   -0.127589432
 467   Q   :    0.225201407    0.123189783    0.110521783
 468   Q   :   -0.009736539   -0.198283633   -0.163574850
 469   Q   :   -0.205381384    0.078306913    0.049463848
 470   Q   :   -0.113467084    0.079203741    0.269621964
 471   Q   :    0.063006848    0.176727279   -0.203141855
 472   Q   :    0.045785571   -0.266205159   -0.068808333
 473   Q   :    0.282712842    0.013276428    0.000959761
 474   Q   :   -0.169500857    0.216934551    0.061752826
 475   Q   :   -0.112105544   -0.232419910   -0.055419442
 476   Q   :    0.210173795   -0.048188957    0.127794856
 477   Q   :   -0.176906879   -0.195406924   -0.093678257
 478   Q   :   -0.038184094    0.237814301   -0.031759893
 479   Q   :   -0.131698677   -0.264185017    0.078145872
 480   Q   :    0.216339305    0.013821653   -0.175777979
 481   Q   :   -0.086146257    0.263907663    0.093374416
 482   Q   :    0.018490321   -0.179249942   -0.215918512
 483   Q   :   -0.099039334    0.261270463   -0.037089986
 484   Q   :    0.071846324   -0.082978990    0.253140606
 485   Q   :    0.113545269   -0.272584664    0.038267531
 486   Q   :    0.046557606    0.222719654    0.139193498
 487   Q   :   -0.158286244    0.038763085   -0.180760008
 488   Q   :   -0.096432344    0.162150566    0.150357584
 489   Q   :   -0.127371095   -0.245859808   -0.116099504
 490   Q   :    0.227380858    0.073500201   -0.047807385
 491   Q   :    0.001395021   -0.227797799   -0.167490036
 492   Q   :   -0.257838683    0.133975166    0.083149667
 493   Q   :    0.255514672    0.093990520    0.084373620
 494   Q   :    0.130932093    0.154837390    0.188570234
 495   Q   :   -0.064397338   -0.259153546    0.024899552
 496   Q   :   -0.062588393    0.100021593   -0.211011545
 497   Q   :   -0.216665719    0.027681672   -0.198881296
 498   Q   :    0.243979171    0.075454526   -0.053494610
 499   Q   :   -0.038777820   -0.109172309    0.243764237
 500   Q   :    0.013627831    0.142853065    0.241310845
 501   Q   :   -0.161518990   -0.235118290   -0.065659592
 502   Q   :    0.150478929    0.076569529   -0.180447113
 503   Q   :   -0.153460311    0.079220342    0.181391848
 504   Q   :   -0.079164420   -0.060320485   -0.261874982
 505   Q   :    0.245039739   -0.018135592    0.084318894
 506   Q   :   -0.122245653   -0.141148102    0.169553143
 507   Q   :   -0.024813901   -0.033143464   -0.291352170
 508   Q   :    0.161610737    0.179794647    0.118264316
 509   Q   :    0.192572669   -0.025757275    0.227713349
 510   Q   :   -0.266546342   -0.126902110   -0.008172591
 511   Q   :    0.083470437    0.158164568   -0.220169359
 512   Q   :    0.263675896    0.149492504    0.083195487
 513   Q   :   -0.237313610    0.081376228    0.067169469
 514   Q   :   -0.016191014   -0.222935141   -0.151136036
 515   Q   :   -0.203458247   -0.055612548    0.184354626
 516   Q   :    0.290323632   -0.087866308    0.007318939
 517   Q   :   -0.084021678    0.136747105   -0.193427774
 518   Q   :    0.058227983    0.014289436   -0.263194496
 519   Q   :   -0.026407611   -0.249768269    0.122460562
 520   Q   :   -0.024181303    0.228104934    0.150940111
 521   Q   :   -0.167336209   -0.198995462   -0.109936736
 522   Q   :    0.293233965   -0.043736624    0.052993596
 523   Q   :   -0.125441626    0.249504847    0.043585385
 524   Q   :    0.005489793   -0.232756644   -0.080546040
 525   Q   :   -0.222146624    0.168634656    0.062284148
 526   Q   :    0.213717016    0.067750341    0.006758105
 527   Q   :   -0.062592703    0.278287540   -0.038898817
 528   Q   :   -0.206260608   -0.210356036    0.071966842
 529   Q   :    0.276824372   -0.058431484   -0.035869447
 530   Q   :    0.203355055   -0.213686512    0.005425984
 531   Q   :    0.002125823    0.203204889   -0.127289577
 532   Q   :   -0.206959805    0.006394757    0.119224484
 533   Q   :   -0.049811684   -0.173513364   -0.232559361
 534   Q   :    0.141021152   -0.079570754    0.217348964
 535   Q   :   -0.094758100    0.260205574    0.025067537
 536   Q   :   -0.125926021    0.177647546    0.104428097
 537   Q   :    0.238437878   -0.068580593    0.019376794
 538   Q   :   -0.118505806   -0.111154214   -0.141289730
 539   Q   :   -0.061693607    0.237464439    0.070833239
 540   Q   :   -0.176814683   -0.217948526   -0.013516062
 541   Q   :    0.226152711   -0.031655311   -0.055829827
 542   Q   :   -0.222754342    0.071461619    0.172379652
 543   Q   :   -0.001186587   -0.048818849   -0.255731903
 544   Q   :    0.217608597   -0.022090230    0.088656179
 545   Q   :   -0.281074200    0.004155544    0.023827508
 546   Q   :    0.157321267   -0.238313501    0.106087553
 547   Q   :    0.121505198    0.221561919   -0.129326629
 548   Q   :   -0.143429785    0.084215141   -0.235869444
 549   Q   :    0.178782434   -0.208416367   -0.001898770
 550   Q   :   -0.028436418    0.130955291    0.242708633
 551   Q   :    0.188894911    0.070701467   -0.159153856
 552   Q   :   -0.239460665   -0.052665168   -0.057305621
 553   Q   :    0.053919790   -0.004316051    0.214039031
 554   Q   :   -0.017987140   -0.075018491   -0.268878861
 555   Q   :   -0.089088782    0.223722929    0.093305292
 556   Q   :    0.103871205   -0.157771451    0.167972103
 557   Q   :    0.295996874   -0.061970411   -0.049947551
 558   Q   :   -0.185086298   -0.164292434    0.189926715
 559   Q   :   -0.119784446    0.231130229   -0.140391058
 560   Q   :    0.192507948   -0.174790399   -0.051774639
 561   Q   :   -0.285670787   -0.053084808   -0.037847891
 562   Q   :    0.085344991    0.224636790    0.085213798
 563   Q   :   -0.076978504   -0.178259463   -0.203500878
 564   Q   :   -0.163960089    0.221271560    0.096708262
 565   Q   :    0.242611692   -0.045485348    0.113946985
 566   Q   :   -0.047904616   -0.247729662   -0.136893921
 567   Q   :    0.200090421    0.181282537   -0.071398962
 568   Q   :   -0.151558784    0.068777043    0.215956676
 569   Q   :    0.152036965    0.140269206   -0.125866548
 570   Q   :    0.050370172   -0.226555421    0.146558740
 571   Q   :   -0.204741869    0.092212494   -0.029541613
 572   Q   :    0.145230558   -0.264991380    0.029493124
 573   Q   :   -0.258903626    0.050430170    0.163275817
 574   Q   :    0.113956171    0.221561719   -0.189748383
 575   Q   :    0.162189754   -0.060847037   -0.237104816
 576   Q   :    0.121007919    0.067641167    0.256572971
 577   Q   :   -0.291078787   -0.005443537   -0.020640387
 578   Q   :    0.039445491    0.243926983    0.137466397
 579   Q   :   -0.260175068   -0.124138702    0.017712499
 580   Q   :    0.217907012   -0.110936786   -0.151625215
 581   Q   :   -0.063647288   -0.169364777    0.184506431
 582   Q   :   -0.168119183    0.168754806   -0.125501446
 583   Q   :    0.233847699    0.010028708   -0.057498038
 584   Q   :   -0.195013631   -0.162928200    0.076630702
 585   Q   :    0.179200185    0.157272152    0.235084910
 586   Q   :    0.019949556   -0.004714624   -0.307759733
 587   Q   :    0.002045288   -0.079253192    0.300727558
 588   Q   :   -0.022310518   -0.173019087   -0.204880404
 589   Q   :    0.020788849    0.259708819   -0.094537549
 590   Q   :    0.297341826    0.109087709    0.075589671
 591   Q   :   -0.120960908   -0.233460817    0.127711150
 592   Q   :   -0.165109217    0.130094912   -0.201638568
 593   Q   :    0.096360150   -0.181746072    0.227685864
 594   Q   :   -0.265433316   -0.048500516   -0.150921510
 595   Q   :    0.179364515    0.230022143   -0.074750903
 596   Q   :    0.228796206    0.065266057    0.184893054
 597   Q   :   -0.039591922   -0.211936263   -0.183816943
 598   Q   :   -0.185148018    0.141105378   -0.003883579
 599   Q   :    0.105284808   -0.243738203    0.062877794
 600   Q   :    0.068146521    0.210209817    0.064869338
 601   Q   :   -0.170382658    0.027109932   -0.134153939
 602   Q   :   -0.267083876   -0.028079439    0.118438510
 603   Q   :    0.157168489   -0.213204123   -0.084690689
 604   Q   :    0.104947432    0.245938201   -0.022044648
 605   Q   :    0.224936628    0.039162420   -0.077834297
 606   Q   :   -0.191330929   -0.216809541   -0.083830456
 607   Q   :   -0.034848277    0.180468069    0.158997506
 608   Q   :   -0.138443455   -0.184874862    0.147869870
 609   Q   :    0.006883001   -0.003132931   -0.236414827
 610   Q   :    0.125745260    0.200518237    0.104048197
 611   Q   :    0.053795321    0.268225046   -0.048423420
 612   Q   :   -0.019773835   -0.167359164    0.224445341
 613   Q   :   -0.033473547   -0.097622275   -0.166144065
 614   Q   :    0.061364474   -0.057514076   -0.240894441
 615   Q   :   -0.276011148    0.098181429    0.080304505
 616   Q   :    0.219768716   -0.033314374    0.160177985
 617   Q   :   -0.209563202    0.020870794   -0.170843126
 618   Q   :   -0.029084134   -0.014330138    0.284342925
 619   Q   :    0.240617057   -0.009960845   -0.118524508
 620   Q   :   -0.226213161   -0.065807663    0.087748364
 621   Q   :    0.142023155    0.215962027    0.069108465
 622   Q   :    0.089225796   -0.148819480   -0.155264488
 623   Q   :   -0.139394082    0.076928930    0.223758519
 624   Q   :   -0.014954014    0.142404922   -0.263792912
 625   Q   :    0.155400652   -0.219067098    0.030254391
 626   Q   :    0.228976989    0.113721532   -0.087308276
 627   Q   :   -0.147180034   -0.183528512   -0.115099524
 628   Q   :   -0.073103790    0.077304227    0.180397602
 629   Q   :   -0.081398305    0.175904028    0.172038920
 630   Q   :   -0.107486674   -0.098571852   -0.228921490
 631   Q   :    0.183755726   -0.069331891    0.051146769

Difference to translation invariance:
           :    0.0006382197    0.0001668827    0.0004348243

Difference to rotation invariance:
           :    0.0024091389    0.0055002217   -0.0065821409

Norm of the cartesian gradient     ...    6.3217792704
RMS gradient                       ...    0.1452994670
MAX gradient                       ...    0.3206655338

-------
TIMINGS
-------

Total SCF gradient time            ...      191.655 sec

One electron gradient       ....      25.897 sec  ( 13.5%)
RI-J Coulomb gradient       ....      10.311 sec  (  5.4%)
COSX gradient               ....     117.431 sec  ( 61.3%)
XC gradient                 ....      16.229 sec  (  8.5%)

Maximum memory used throughout the entire SCFGRAD-calculation: 765.2 MB

                            ***************************************
                            *     ORCA property calculations      *
                            ***************************************

                                    ---------------------
                                    Active property flags
                                    ---------------------
   (+) Dipole Moment


------------------------------------------------------------------------------
                       ORCA ELECTRIC PROPERTIES CALCULATION
------------------------------------------------------------------------------

Dipole Moment Calculation                       ... on
Quadrupole Moment Calculation                   ... off
Polarizability Calculation                      ... off
GBWName                                         ... final004.orca.gbw
Electron density                                ... final004.orca.scfp
The origin for moment calculation is the CENTER OF MASS  = (22.077623, 18.620610 20.297519)

-------------
DIPOLE MOMENT
-------------
                                X             Y             Z
Electronic contribution:     -0.30681      -0.40509      -0.48781
Nuclear contribution   :    -16.46650     -15.35601       8.28222
                        -----------------------------------------
Total Dipole Moment    :    -16.77331     -15.76110       7.79441
                        -----------------------------------------
Magnitude (a.u.)       :     24.30039
Magnitude (Debye)      :     61.76669



--------------------
Rotational spectrum 
--------------------
 
Rotational constants in cm-1:     0.002291     0.001414     0.001326 
Rotational constants in MHz :    68.673687    42.389811    39.749680 

 Dipole components along the rotational axes: 
x,y,z [a.u.] :    15.284513     5.167100    18.171238 
x,y,z [Debye]:    38.850144    13.133724    46.187615 

 

Timings for individual modules:

Sum of individual times         ...      825.040 sec (=  13.751 min)
GTO integral calculation        ...       13.278 sec (=   0.221 min)   1.6 %
SCF iterations                  ...      615.675 sec (=  10.261 min)  74.6 %
SCF Gradient evaluation         ...      196.087 sec (=   3.268 min)  23.8 %
                             ****ORCA TERMINATED NORMALLY****
TOTAL RUN TIME: 0 days 0 hours 13 minutes 52 seconds 910 msec
