
                                 *****************
                                 * O   R   C   A *
                                 *****************

                                            #,                                       
                                            ###                                      
                                            ####                                     
                                            #####                                    
                                            ######                                   
                                           ########,                                 
                                     ,,################,,,,,                         
                               ,,#################################,,                 
                          ,,##########################################,,             
                       ,#########################################, ''#####,          
                    ,#############################################,,   '####,        
                  ,##################################################,,,,####,       
                ,###########''''           ''''###############################       
              ,#####''   ,,,,##########,,,,          '''####'''          '####       
            ,##' ,,,,###########################,,,                        '##       
           ' ,,###''''                  '''############,,,                           
         ,,##''                                '''############,,,,        ,,,,,,###''
      ,#''                                            '''#######################'''  
     '                                                          ''''####''''         
             ,#######,   #######,   ,#######,      ##                                
            ,#'     '#,  ##    ##  ,#'     '#,    #''#        ######   ,####,        
            ##       ##  ##   ,#'  ##            #'  '#       #        #'  '#        
            ##       ##  #######   ##           ,######,      #####,   #    #        
            '#,     ,#'  ##    ##  '#,     ,#' ,#      #,         ##   #,  ,#        
             '#######'   ##     ##  '#######'  #'      '#     #####' # '####'        



                  #######################################################
                  #                        -***-                        #
                  #          Department of theory and spectroscopy      #
                  #    Directorship and core code : Frank Neese         #
                  #        Max Planck Institute fuer Kohlenforschung    #
                  #                Kaiser Wilhelm Platz 1               #
                  #                 D-45470 Muelheim/Ruhr               #
                  #                      Germany                        #
                  #                                                     #
                  #                  All rights reserved                #
                  #                        -***-                        #
                  #######################################################


                         Program Version 5.0.3 -  RELEASE  -


 With contributions from (in alphabetic order):
   Daniel Aravena         : Magnetic Suceptibility
   Michael Atanasov       : Ab Initio Ligand Field Theory (pilot matlab implementation)
   Alexander A. Auer      : GIAO ZORA, VPT2 properties, NMR spectrum
   Ute Becker             : Parallelization
   Giovanni Bistoni       : ED, misc. LED, open-shell LED, HFLD
   Martin Brehm           : Molecular dynamics
   Dmytro Bykov           : SCF Hessian
   Vijay G. Chilkuri      : MRCI spin determinant printing, contributions to CSF-ICE
   Dipayan Datta          : RHF DLPNO-CCSD density
   Achintya Kumar Dutta   : EOM-CC, STEOM-CC
   Dmitry Ganyushin       : Spin-Orbit,Spin-Spin,Magnetic field MRCI
   Miquel Garcia          : C-PCM and meta-GGA Hessian, CC/C-PCM, Gaussian charge scheme
   Yang Guo               : DLPNO-NEVPT2, F12-NEVPT2, CIM, IAO-localization
   Andreas Hansen         : Spin unrestricted coupled pair/coupled cluster methods
   Benjamin Helmich-Paris : MC-RPA, TRAH-SCF, COSX integrals
   Lee Huntington         : MR-EOM, pCC
   Robert Izsak           : Overlap fitted RIJCOSX, COSX-SCS-MP3, EOM
   Marcus Kettner         : VPT2
   Christian Kollmar      : KDIIS, OOCD, Brueckner-CCSD(T), CCSD density, CASPT2, CASPT2-K
   Simone Kossmann        : Meta GGA functionals, TD-DFT gradient, OOMP2, MP2 Hessian
   Martin Krupicka        : Initial AUTO-CI
   Lucas Lang             : DCDCAS
   Marvin Lechner         : AUTO-CI (C++ implementation), FIC-MRCC
   Dagmar Lenk            : GEPOL surface, SMD
   Dimitrios Liakos       : Extrapolation schemes; Compound Job, initial MDCI parallelization
   Dimitrios Manganas     : Further ROCIS development; embedding schemes
   Dimitrios Pantazis     : SARC Basis sets
   Anastasios Papadopoulos: AUTO-CI, single reference methods and gradients
   Taras Petrenko         : DFT Hessian,TD-DFT gradient, ASA, ECA, R-Raman, ABS, FL, XAS/XES, NRVS
   Peter Pinski           : DLPNO-MP2, DLPNO-MP2 Gradient
   Christoph Reimann      : Effective Core Potentials
   Marius Retegan         : Local ZFS, SOC
   Christoph Riplinger    : Optimizer, TS searches, QM/MM, DLPNO-CCSD(T), (RO)-DLPNO pert. Triples
   Tobias Risthaus        : Range-separated hybrids, TD-DFT gradient, RPA, STAB
   Michael Roemelt        : Original ROCIS implementation
   Masaaki Saitow         : Open-shell DLPNO-CCSD energy and density
   Barbara Sandhoefer     : DKH picture change effects
   Avijit Sen             : IP-ROCIS
   Kantharuban Sivalingam : CASSCF convergence, NEVPT2, FIC-MRCI
   Bernardo de Souza      : ESD, SOC TD-DFT
   Georgi Stoychev        : AutoAux, RI-MP2 NMR, DLPNO-MP2 response
   Willem Van den Heuvel  : Paramagnetic NMR
   Boris Wezisla          : Elementary symmetry handling
   Frank Wennmohs         : Technical directorship


 We gratefully acknowledge several colleagues who have allowed us to
 interface, adapt or use parts of their codes:
   Stefan Grimme, W. Hujo, H. Kruse, P. Pracht,  : VdW corrections, initial TS optimization,
                  C. Bannwarth, S. Ehlert          DFT functionals, gCP, sTDA/sTD-DF
   Ed Valeev, F. Pavosevic, A. Kumar             : LibInt (2-el integral package), F12 methods
   Garnet Chan, S. Sharma, J. Yang, R. Olivares  : DMRG
   Ulf Ekstrom                                   : XCFun DFT Library
   Mihaly Kallay                                 : mrcc  (arbitrary order and MRCC methods)
   Jiri Pittner, Ondrej Demel                    : Mk-CCSD
   Frank Weinhold                                : gennbo (NPA and NBO analysis)
   Christopher J. Cramer and Donald G. Truhlar   : smd solvation model
   Lars Goerigk                                  : TD-DFT with DH, B97 family of functionals
   V. Asgeirsson, H. Jonsson                     : NEB implementation
   FAccTs GmbH                                   : IRC, NEB, NEB-TS, DLPNO-Multilevel, CI-OPT
                                                   MM, QMMM, 2- and 3-layer-ONIOM, Crystal-QMMM,
                                                   LR-CPCM, SF, NACMEs, symmetry and pop. for TD-DFT,
                                                   nearIR, NL-DFT gradient (VV10), updates on ESD,
                                                   ML-optimized integration grids
   S Lehtola, MJT Oliveira, MAL Marques          : LibXC Library
   Liviu Ungur et al                             : ANISO software


 Your calculation uses the libint2 library for the computation of 2-el integrals
 For citations please refer to: http://libint.valeyev.net

 Your ORCA version has been built with support for libXC version: 5.1.0
 For citations please refer to: https://tddft.org/programs/libxc/

 This ORCA versions uses:
   CBLAS   interface :  Fast vector & matrix operations
   LAPACKE interface :  Fast linear algebra routines
   SCALAPACK package :  Parallel linear algebra routines
   Shared memory     :  Shared parallel matrices
   BLAS/LAPACK       :  OpenBLAS 0.3.15  USE64BITINT DYNAMIC_ARCH NO_AFFINITY SkylakeX SINGLE_THREADED
        Core in use  :  SkylakeX
   Copyright (c) 2011-2014, The OpenBLAS Project


================================================================================

----- Orbital basis set information -----
Your calculation utilizes the basis: def2-SVP
   F. Weigend and R. Ahlrichs, Phys. Chem. Chem. Phys. 7, 3297 (2005).

The basis set includes element-specific modifications.

Your calculation utilizes the basis: aug-cc-pVTZ 
    H, B-Ne : Obtained from the ccRepo (grant-hill.group.shef.ac.uk/ccrepo) Feb. 2017
              R. A. Kendall, T. H. Dunning, Jr., R. J. Harrison, J. Chem. Phys. 96, 6796 (1992)
         He : Obtained from the ccRepo (grant-hill.group.shef.ac.uk/ccrepo) Feb. 2017
              D. E. Woon, T. H. Dunning, Jr., J. Chem. Phys. 100, 2975 (1994)
  Li-Be, Na : Obtained from the ccRepo (grant-hill.group.shef.ac.uk/ccrepo) Feb. 2017
              B. P. Prascher, D. E. Woon, K. A. Peterson, T. H. Dunning, Jr., A. K. Wilson, Theor. Chem. Acc. 128, 69 (2011)
         Mg : Obtained from the Peterson Research Group Website (tyr0.chem.wsu.edu/~kipeters) Feb. 2017
              B. P. Prascher, D. E. Woon, K. A. Peterson, T. H. Dunning, Jr., A. K. Wilson, Theor. Chem. Acc. 128, 69 (2011)
      Al-Ar : Obtained from the ccRepo (grant-hill.group.shef.ac.uk/ccrepo) Feb. 2017
              D. E. Woon, T. H. Dunning, Jr., J. Chem. Phys. 98, 1358 (1993)
      Sc-Zn : Obtained from the ccRepo (grant-hill.group.shef.ac.uk/ccrepo) Feb. 2017
              N. B. Balabanov, K. A. Peterson, J. Chem. Phys. 123, 064107 (2005)
              N. B. Balabanov, K. A. Peterson, J. Chem. Phys. 125, 074110 (2006)
      Ga-Kr : Obtained from the ccRepo (grant-hill.group.shef.ac.uk/ccrepo) Feb. 2017
              A. K. Wilson, D. E. Woon, K. A. Peterson, T. H. Dunning, Jr., J. Chem. Phys. 110, 7667 (1999)
     Ag, Au : Obtained from the Peterson Research Group Website (tyr0.chem.wsu.edu/~kipeters) Feb. 2017
              K. A. Peterson, C. Puzzarini, Theor. Chem. Acc. 114, 283 (2005)

Your calculation utilizes the basis: cc-pVTZ 
       H, B-Ne : Obtained from the ccRepo (grant-hill.group.shef.ac.uk/ccrepo) Feb. 2017
                 T. H. Dunning, Jr., J. Chem. Phys. 90, 1007 (1989)
            He : Obtained from the ccRepo (grant-hill.group.shef.ac.uk/ccrepo) Feb. 2017
                 D. E. Woon, T. H. Dunning, Jr., J. Chem. Phys. 100, 2975 (1994)
  Li-Be, Na-Mg : Obtained from the ccRepo (grant-hill.group.shef.ac.uk/ccrepo) Feb. 2017
                 B. P. Prascher, D. E. Woon, K. A. Peterson, T. H. Dunning, Jr., A. K. Wilson, Theor. Chem. Acc. 128, 69 (2011)
         Al-Ar : Obtained from the ccRepo (grant-hill.group.shef.ac.uk/ccrepo) Feb. 2017
                 D. E. Woon, T. H. Dunning, Jr., J. Chem. Phys. 98, 1358 (1993)
            Ca : Obtained from the Peterson Research Group Website (tyr0.chem.wsu.edu/~kipeters) Feb. 2017
                 J. Koput, K. A. Peterson, J. Phys. Chem. 106, 9595 (2002)
         Sc-Zn : Obtained from the ccRepo (grant-hill.group.shef.ac.uk/ccrepo) Feb. 2017
                 N. B. Balabanov, K. A. Peterson, J. Chem. Phys. 123, 064107 (2005)
                 N. B. Balabanov, K. A. Peterson, J. Chem. Phys. 125, 074110 (2006)
         Ga-Kr : Obtained from the ccRepo (grant-hill.group.shef.ac.uk/ccrepo) Feb. 2017
                 A. K. Wilson, D. E. Woon, K. A. Peterson, T. H. Dunning, Jr., J. Chem. Phys. 110, 7667 (1999)
             Y : Obtained from the ccRepo (grant-hill.group.shef.ac.uk/ccrepo) Feb. 2017
                 K. A. Peterson, D. Figgen, M. Dolg, H. Stoll, J. Chem. Phys. 126, 124101 (2007)
        Ag, Au : Obtained from the Peterson Research Group Website (tyr0.chem.wsu.edu/~kipeters) Feb. 2017
                 K. A. Peterson, C. Puzzarini, Theor. Chem. Acc. 114, 283 (2005)

----- AuxJ basis set information -----
Your calculation utilizes the auxiliary basis: def2/J
   F. Weigend, Phys. Chem. Chem. Phys. 8, 1057 (2006).

================================================================================
                                        WARNINGS
                       Please study these warnings very carefully!
================================================================================

WARNING: The globally-selected AuxJ basis set is optimized for use with ECPs
         Make sure a suitable alternative is explicitly given all heavy elements (Z>36)

INFO   : the flag for use of the SHARK integral package has been found!

================================================================================
                                       INPUT FILE
================================================================================
NAME = final060.orca.inp
|  1> ! NoMOPrint PrintBasis #MINIPRINT SMALLPRINT LARGEPRINT
|  2> ! ALLPOP XYZFILE
|  3> #! BP86 3-21G   TightSCF
|  4> ! ENGRAD
|  5> ! B3LYP NormalPNO PModel #DecontractAux
|  6> #! VerySlowConv 
|  7>  %maxcore 5000
|  8>  %scf  maxiter   500  end 
|  9> 
| 10> %pal
| 11>     nprocs 32
| 12> end
| 13> 
| 14> %basis
| 15>     NewGTO O    # New basis for oxygen
| 16>         "aug-cc-pVTZ"
| 17>     end
| 18>     NewGTO C    # New basis for carbon
| 19>         "aug-cc-pVTZ"
| 20>     end
| 21>     NewGTO H    # New basis for hydrogen
| 22>         "cc-pVTZ"
| 23>     end
| 24> end
| 25> 
| 26> * xyz 0   1
| 27>   C  11.94  11.1  11.84  #1
| 28>   H  11.81  12.13  11.71  #2
| 29>   H  12.26  10.68  10.92  #3
| 30>   C  10.53  10.57  12.23  #4
| 31>   H  10.76  9.71  12.9  #5
| 32>   H  10.15  11.34  12.85  #6
| 33>   C  9.51  10.26  11.17  #7
| 34>   H  8.58  10.15  11.68  #8
| 35>   H  9.71  9.31  10.74  #9
| 36>   C  9.32  11.47  10.2  #10
| 37>   H  10.23  11.72  9.69  #11
| 38>   H  9.01  12.4  10.66  #12
| 39>   O  8.38  11.09  9.24  #13
| 40>   H  8.06  11.86  8.82  #14
| 41>   O  12.98  10.91  12.84  #15
| 42>   H  13.66  11.6  12.62  #16
| 43>   O  5.91  12.69  9.49  #17
| 44>   H  6.7  13.23  9.29  #18
| 45>   H  5.45  13.35  10.01  #19
| 46>   O  11.4  12.16  7.59  #20
| 47>   H  10.81  12.11  6.82  #21
| 48>   H  10.94  12.8  8.18  #22
| 49>   O  13.07  7.47  12.11  #23
| 50>   H  12.7  8.04  11.45  #24
| 51>   H  12.44  7.52  12.88  #25
| 52>   O  9.19  7.07  12.1  #26
| 53>   H  8.42  7.6  11.97  #27
| 54>   H  8.88  6.12  12.12  #28
| 55>   O  12.42  8.81  14.69  #29
| 56>   H  13.04  8.04  14.89  #30
| 57>   H  12.86  9.43  14.02  #31
| 58>   O  7.93  8.58  8.14  #32
| 59>   H  8.8  8.89  7.9  #33
| 60>   H  7.71  9.55  8.48  #34
| 61>   O  2.79  12.65  8.48  #35
| 62>   H  2.88  12.77  7.55  #36
| 63>   H  3.68  12.32  8.74  #37
| 64>   O  10.75  9.12  7.63  #38
| 65>   H  11  8.67  6.76  #39
| 66>   H  10.79  10.1  7.5  #40
| 67>   O  15.14  12.83  11.63  #41
| 68>   H  15.32  12.63  10.69  #42
| 69>   H  15.56  12.28  12.23  #43
| 70>   O  11.08  7.31  10.01  #44
| 71>   H  10.27  7.22  10.52  #45
| 72>   H  10.92  8.08  9.38  #46
| 73>   O  10.89  12.85  14.89  #47
| 74>   H  10.75  13.47  14.15  #48
| 75>   H  11.8  12.9  15.13  #49
| 76>   O  6.51  6.23  7.86  #50
| 77>   H  7.01  7.06  8.09  #51
| 78>   H  7.22  5.59  7.75  #52
| 79>   O  12.32  14.2  5.64  #53
| 80>   H  11.91  13.76  4.92  #54
| 81>   H  12.08  13.71  6.39  #55
| 82>   O  15.76  7.22  11.3  #56
| 83>   H  16.4  6.92  12.04  #57
| 84>   H  14.91  7.46  11.68  #58
| 85>   O  7.52  9.74  5.72  #59
| 86>   H  6.83  9.5  5.11  #60
| 87>   H  7.21  9.12  6.44  #61
| 88>   O  10.42  14.59  8.74  #62
| 89>   H  9.91  14.9  8  #63
| 90>   H  11.17  15.19  8.83  #64
| 91>   O  8.02  13.35  7.37  #65
| 92>   H  7.99  14.3  7.18  #66
| 93>   H  7.74  13.06  6.49  #67
| 94>   O  10.89  14.74  12.73  #68
| 95>   H  10.74  15.56  13.25  #69
| 96>   H  11.68  14.84  12.23  #70
| 97>   O  13.84  12.63  8.85  #71
| 98>   H  13.04  12.24  8.45  #72
| 99>   H  13.96  13.46  8.44  #73
|100>   O  8.74  4.32  12.26  #74
|101>   H  8.97  3.57  12.87  #75
|102>   H  9.39  4.01  11.61  #76
|103>   O  6.75  8.17  12.6  #77
|104>   H  5.95  7.66  12.64  #78
|105>   H  6.42  9.08  12.51  #79
|106>   O  12.49  4.76  11.67  #80
|107>   H  12.65  4.78  10.73  #81
|108>   H  12.49  5.73  11.82  #82
|109>   O  5.55  10.64  11.84  #83
|110>   H  4.85  10.14  11.4  #84
|111>   H  5.91  11.25  11.14  #85
|112>   O  10.35  10.19  15.8  #86
|113>   H  11.14  9.71  15.51  #87
|114>   H  10.43  11.06  15.42  #88
|115>   O  5.11  10.44  8.06  #89
|116>   H  5.02  10.76  7.16  #90
|117>   H  5.31  11.2  8.56  #91
|118>   O  10.86  6.15  14.05  #92
|119>   H  10.39  6.65  13.36  #93
|120>   H  10.87  6.66  14.89  #94
|121>   O  8.08  15.21  10.45  #95
|122>   H  8.04  14.97  11.34  #96
|123>   H  8.89  14.82  10.15  #97
|124>   O  15.98  11.93  14.13  #98
|125>   H  16.89  12.19  14.3  #99
|126>   H  16.2  10.99  14.1  #100
|127>   O  13.78  6.3  15.06  #101
|128>   H  12.89  6.06  14.73  #102
|129>   H  14.36  6.46  14.33  #103
|130>   O  13.5  14.92  11.18  #104
|131>   H  14.06  14.22  11.56  #105
|132>   H  13.74  15.75  11.58  #106
|133>   O  5.33  15.22  10.71  #107
|134>   H  4.95  15.48  11.51  #108
|135>   H  6.24  15.58  10.74  #109
|136>   O  10  11.38  5.46  #110
|137>   H  9.27  10.75  5.54  #111
|138>   H  10.6  10.97  4.74  #112
|139>   Q  0.6645  6.35$  14.9$  0.79$
|140>   Q  0.6645  7.23$  14.13$  -0.14$
|141>   Q  -1.3290  6.93$  14.32$  0.58$
|142>   Q  0.6645  4.29$  8.67$  0.82$
|143>   Q  0.6645  4.84$  7.22$  1.03$
|144>   Q  -1.3290  4.57$  8$  1.28$
|145>   Q  0.6645  16.62$  5.12$  13.46$
|146>   Q  0.6645  16.92$  6.25$  14.42$
|147>   Q  -1.3290  16.86$  5.92$  13.64$
|148>   Q  0.6645  17.73$  15.27$  8.36$
|149>   Q  0.6645  18.77$  15.58$  7.31$
|150>   Q  -1.3290  18.35$  15.71$  8.05$
|151>   Q  0.6645  16.1$  15.46$  12.59$
|152>   Q  0.6645  17.1$  16.44$  12.07$
|153>   Q  -1.3290  16.84$  15.68$  12.28$
|154>   Q  0.6645  19.91$  15.49$  17.4$
|155>   Q  0.6645  20.42$  14.27$  18.15$
|156>   Q  -1.3290  20.05$  14.67$  17.51$
|157>   Q  0.6645  9.98$  15.21$  18.06$
|158>   Q  0.6645  9.17$  16.22$  18.88$
|159>   Q  -1.3290  9.62$  15.53$  18.76$
|160>   Q  0.6645  10.47$  2.34$  6.09$
|161>   Q  0.6645  10.29$  3.5$  7.14$
|162>   Q  -1.3290  10.15$  3.06$  6.41$
|163>   Q  0.6645  2.86$  14.54$  12.71$
|164>   Q  0.6645  3.97$  14.21$  13.82$
|165>   Q  -1.3290  3.43$  14.68$  13.33$
|166>   Q  0.6645  7.36$  17.96$  9.12$
|167>   Q  0.6645  6.54$  18.83$  8.16$
|168>   Q  -1.3290  6.94$  18.15$  8.42$
|169>   Q  0.6645  16.2$  18.6$  10.19$
|170>   Q  0.6645  16.12$  19.36$  11.52$
|171>   Q  -1.3290  15.86$  18.81$  10.94$
|172>   Q  0.6645  1.41$  17.74$  6.03$
|173>   Q  0.6645  0.68$  16.48$  6.66$
|174>   Q  -1.3290  0.74$  17.23$  6.26$
|175>   Q  0.6645  11.03$  11.46$  18.64$
|176>   Q  0.6645  10.39$  10.48$  17.78$
|177>   Q  -1.3290  10.7$  10.73$  18.5$
|178>   Q  0.6645  8.17$  1.3$  14.2$
|179>   Q  0.6645  7.42$  0.86$  15.38$
|180>   Q  -1.3290  7.71$  0.74$  14.63$
|181>   Q  0.6645  11.73$  4.85$  4.06$
|182>   Q  0.6645  11.49$  4.19$  5.54$
|183>   Q  -1.3290  11.92$  4.65$  4.93$
|184>   Q  0.6645  1.58$  7.02$  9.04$
|185>   Q  0.6645  1.29$  6.05$  10.2$
|186>   Q  -1.3290  1.16$  6.71$  9.67$
|187>   Q  0.6645  9.69$  18.39$  17.84$
|188>   Q  0.6645  10.11$  19.52$  16.99$
|189>   Q  -1.3290  10.06$  18.72$  17.17$
|190>   Q  0.6645  14.27$  16.35$  13.77$
|191>   Q  0.6645  14.21$  14.88$  14.33$
|192>   Q  -1.3290  14.56$  15.59$  14.01$
|193>   Q  0.6645  8.85$  8.21$  4.23$
|194>   Q  0.6645  10.41$  7.91$  4.05$
|195>   Q  -1.3290  9.64$  8.17$  3.83$
|196>   Q  0.6645  17.19$  5.64$  9.96$
|197>   Q  0.6645  17.76$  5.48$  8.5$
|198>   Q  -1.3290  17.18$  5.55$  9.11$
|199>   Q  0.6645  2.92$  8.72$  10.69$
|200>   Q  0.6645  2.7$  9.79$  11.86$
|201>   Q  -1.3290  3.06$  9.09$  11.47$
|202>   Q  0.6645  9.05$  16.27$  6$
|203>   Q  0.6645  7.91$  16.87$  7.01$
|204>   Q  -1.3290  8.33$  16.26$  6.5$
|205>   Q  0.6645  19.04$  14.86$  5.01$
|206>   Q  0.6645  18.36$  13.54$  5.34$
|207>   Q  -1.3290  18.53$  14.36$  5.48$
|208>   Q  0.6645  14.54$  7.57$  19.63$
|209>   Q  0.6645  13.43$  7.04$  18.87$
|210>   Q  -1.3290  13.88$  7.66$  19.14$
|211>   Q  0.6645  3.5$  13.27$  1.2$
|212>   Q  0.6645  3.87$  13.92$  -0.11$
|213>   Q  -1.3290  3.61$  13.92$  0.69$
|214>   Q  0.6645  2.85$  11.42$  3.08$
|215>   Q  0.6645  2.65$  11.64$  1.62$
|216>   Q  -1.3290  3.11$  11.67$  2.32$
|217>   Q  0.6645  17.05$  14.1$  10.39$
|218>   Q  0.6645  17.08$  12.81$  9.55$
|219>   Q  -1.3290  17.07$  13.66$  9.68$
|220>   Q  0.6645  16.82$  8.09$  16.73$
|221>   Q  0.6645  16.85$  6.68$  17.35$
|222>   Q  -1.3290  16.97$  7.28$  16.72$
|223>   Q  0.6645  12.78$  4.42$  17.86$
|224>   Q  0.6645  13.76$  5.22$  17.01$
|225>   Q  -1.3290  13.3$  5.06$  17.68$
|226>   Q  0.6645  20.99$  13.15$  11.79$
|227>   Q  0.6645  21.43$  12.42$  13.02$
|228>   Q  -1.3290  20.93$  12.57$  12.38$
|229>   Q  0.6645  14.59$  15.09$  18.89$
|230>   Q  0.6645  13.34$  15.85$  18.44$
|231>   Q  -1.3290  13.82$  15.19$  18.59$
|232>   Q  0.6645  8.23$  6.46$  5.84$
|233>   Q  0.6645  6.78$  6.85$  5.48$
|234>   Q  -1.3290  7.6$  6.69$  5.34$
|235>   Q  0.6645  7.48$  14.76$  17.05$
|236>   Q  0.6645  6.04$  15.21$  16.8$
|237>   Q  -1.3290  6.83$  15.31$  17.02$
|238>   Q  0.6645  12.99$  15.8$  9.65$
|239>   Q  0.6645  12.17$  17.02$  9.23$
|240>   Q  -1.3290  12.63$  16.32$  9.12$
|241>   Q  0.6645  5.32$  8.52$  3.06$
|242>   Q  0.6645  4.83$  8.2$  4.45$
|243>   Q  -1.3290  5.24$  8.65$  3.88$
|244>   Q  0.6645  11.27$  14.44$  16.6$
|245>   Q  0.6645  11.78$  15.86$  16.86$
|246>   Q  -1.3290  11.21$  15.27$  16.66$
|247>   Q  0.6645  9.32$  18.17$  10.17$
|248>   Q  0.6645  8.45$  16.89$  10.59$
|249>   Q  -1.3290  8.62$  17.72$  10.43$
|250>   Q  0.6645  5.92$  5.54$  17.06$
|251>   Q  0.6645  6.12$  6.99$  16.86$
|252>   Q  -1.3290  6$  6.23$  16.6$
|253>   Q  0.6645  11.77$  19.29$  9.96$
|254>   Q  0.6645  10.86$  19.09$  8.75$
|255>   Q  -1.3290  11.22$  18.86$  9.49$
|256>   Q  0.6645  11.72$  12.26$  2.75$
|257>   Q  0.6645  12.38$  13.63$  2.43$
|258>   Q  -1.3290  11.84$  13.12$  2.82$
|259>   Q  0.6645  15.97$  2.58$  12.84$
|260>   Q  0.6645  16.81$  2.75$  14.01$
|261>   Q  -1.3290  16.16$  2.94$  13.55$
|262>   Q  0.6645  7.56$  -0.19$  10.96$
|263>   Q  0.6645  7.27$  1.29$  10.8$
|264>   Q  -1.3290  7.3$  0.5$  10.54$
|265>   Q  0.6645  5.93$  16.85$  19.68$
|266>   Q  0.6645  6.31$  15.91$  18.6$
|267>   Q  -1.3290  6.05$  16.08$  19.4$
|268>   Q  0.6645  20.32$  12.21$  8.61$
|269>   Q  0.6645  19.33$  13.28$  8.21$
|270>   Q  -1.3290  20$  12.8$  8.12$
|271>   Q  0.6645  5.63$  1.94$  16.61$
|272>   Q  0.6645  6.33$  3.15$  15.81$
|273>   Q  -1.3290  6.25$  2.5$  16.38$
|274>   Q  0.6645  7.86$  5.51$  15.84$
|275>   Q  0.6645  9.32$  5.24$  15.33$
|276>   Q  -1.3290  8.6$  5.06$  15.75$
|277>   Q  0.6645  6.54$  13.28$  13.81$
|278>   Q  0.6645  7.71$  13.93$  14.41$
|279>   Q  -1.3290  7.17$  13.82$  13.82$
|280>   Q  0.6645  16.92$  8.45$  7.86$
|281>   Q  0.6645  16.21$  7.29$  8.66$
|282>   Q  -1.3290  16.34$  8.11$  8.43$
|283>   Q  0.6645  10.29$  15.39$  22.21$
|284>   Q  0.6645  10.17$  15.22$  20.71$
|285>   Q  -1.3290  10.55$  15.17$  21.46$
|286>   Q  0.6645  5.16$  17.41$  13.02$
|287>   Q  0.6645  4.36$  18.09$  14.03$
|288>   Q  -1.3290  4.56$  17.93$  13.24$
|289>   Q  0.6645  1.27$  14.36$  7.51$
|290>   Q  0.6645  -0.19$  14.46$  7.85$
|291>   Q  -1.3290  0.56$  14.77$  7.72$
|292>   Q  0.6645  18.73$  7.69$  16.15$
|293>   Q  0.6645  20.07$  7.62$  15.21$
|294>   Q  -1.3290  19.57$  7.87$  15.91$
|295>   Q  0.6645  19.18$  13.1$  13.36$
|296>   Q  0.6645  18.11$  14.18$  13.37$
|297>   Q  -1.3290  18.54$  13.53$  13.67$
|298>   Q  0.6645  2.5$  7.38$  6.07$
|299>   Q  0.6645  1.29$  7.94$  6.78$
|300>   Q  -1.3290  1.67$  7.4$  6.25$
|301>   Q  0.6645  1.05$  9.88$  4.1$
|302>   Q  0.6645  0.69$  11.28$  4.27$
|303>   Q  -1.3290  1.19$  10.68$  4.01$
|304>   Q  0.6645  10.2$  15.53$  2.78$
|305>   Q  0.6645  11.03$  16.51$  2.2$
|306>   Q  -1.3290  10.33$  16.15$  2.25$
|307>   Q  0.6645  1.88$  14.19$  10.11$
|308>   Q  0.6645  0.96$  14.69$  11.21$
|309>   Q  -1.3290  1.62$  14.27$  10.88$
|310>   Q  0.6645  5.01$  6.66$  6.67$
|311>   Q  0.6645  4.8$  6.07$  5.29$
|312>   Q  -1.3290  4.76$  6.69$  5.89$
|313>   Q  0.6645  14.9$  20.78$  14.14$
|314>   Q  0.6645  15.33$  19.73$  15.07$
|315>   Q  -1.3290  15.46$  20.35$  14.57$
|316>   Q  0.6645  9.33$  1.69$  19.07$
|317>   Q  0.6645  8.89$  2.72$  18.04$
|318>   Q  -1.3290  9.37$  2.08$  18.34$
|319>   Q  0.6645  11.32$  5.99$  2.17$
|320>   Q  0.6645  9.84$  6.1$  2.63$
|321>   Q  -1.3290  10.58$  5.69$  2.46$
|322>   Q  0.6645  4.77$  2.05$  6.43$
|323>   Q  0.6645  4.72$  3.47$  6.88$
|324>   Q  -1.3290  4.92$  2.86$  6.36$
|325>   Q  0.6645  17.42$  12.43$  16.8$
|326>   Q  0.6645  18.73$  13.06$  16.2$
|327>   Q  -1.3290  18.25$  12.43$  16.54$
|328>   Q  0.6645  15.86$  10.13$  9.17$
|329>   Q  0.6645  15.14$  11.52$  9.12$
|330>   Q  -1.3290  15.82$  10.98$  9.23$
|331>   Q  0.6645  19.42$  7.84$  19.31$
|332>   Q  0.6645  19.6$  8.35$  17.9$
|333>   Q  -1.3290  19.46$  8.44$  18.71$
|334>   Q  0.6645  16.73$  10.46$  20.29$
|335>   Q  0.6645  17.71$  10.18$  19.15$
|336>   Q  -1.3290  17.04$  10.58$  19.52$
|337>   Q  0.6645  8.58$  7.82$  1.97$
|338>   Q  0.6645  8.59$  7.36$  0.41$
|339>   Q  -1.3290  8.38$  7.34$  1.26$
|340>   Q  0.6645  15.44$  14.13$  5.6$
|341>   Q  0.6645  14.04$  14.71$  5.34$
|342>   Q  -1.3290  14.87$  14.62$  5.21$
|343>   Q  0.6645  4.8$  20.22$  9.67$
|344>   Q  0.6645  6.2$  20.64$  9.59$
|345>   Q  -1.3290  5.51$  20.38$  9.28$
|346>   Q  0.6645  1.33$  4.07$  14.3$
|347>   Q  0.6645  2.48$  5.12$  13.91$
|348>   Q  -1.3290  1.82$  4.59$  13.78$
|349>   Q  0.6645  13.55$  13.25$  16.42$
|350>   Q  0.6645  14.74$  12.81$  15.58$
|351>   Q  -1.3290  14.07$  13.26$  15.76$
|352>   Q  0.6645  13.49$  18.38$  4.72$
|353>   Q  0.6645  13.58$  17.33$  5.75$
|354>   Q  -1.3290  13.23$  17.7$  5.1$
|355>   Q  0.6645  21.09$  10.53$  10.53$
|356>   Q  0.6645  22.12$  11.14$  9.63$
|357>   Q  -1.3290  21.37$  10.83$  9.8$
|358>   Q  0.6645  11.24$  19.89$  12.55$
|359>   Q  0.6645  9.81$  19.28$  12.65$
|360>   Q  -1.3290  10.64$  19.33$  12.81$
|361>   Q  0.6645  1.46$  8.91$  14.53$
|362>   Q  0.6645  1.44$  9.22$  16.06$
|363>   Q  -1.3290  1.8$  9.11$  15.26$
|364>   Q  0.6645  12.95$  5.35$  8.05$
|365>   Q  0.6645  11.8$  6.17$  8.78$
|366>   Q  -1.3290  12.13$  5.53$  8.3$
|367>   Q  0.6645  8.15$  4.79$  21.35$
|368>   Q  0.6645  8.02$  6.01$  20.39$
|369>   Q  -1.3290  7.75$  5.33$  20.8$
|370>   Q  0.6645  7.81$  20.84$  13.4$
|371>   Q  0.6645  7.26$  19.52$  12.6$
|372>   Q  -1.3290  7.74$  20.25$  12.74$
|373>   Q  0.6645  2$  12.34$  11.61$
|374>   Q  0.6645  2.03$  11.67$  12.97$
|375>   Q  -1.3290  2.03$  11.67$  12.11$
|376>   Q  0.6645  6.56$  15.79$  4.98$
|377>   Q  0.6645  5.05$  16.02$  4.78$
|378>   Q  -1.3290  5.87$  16.16$  4.67$
|379>   Q  0.6645  13.73$  19.97$  10.77$
|380>   Q  0.6645  13.39$  21.34$  10.19$
|381>   Q  -1.3290  13.24$  20.63$  10.59$
|382>   Q  0.6645  11.88$  17.94$  17.44$
|383>   Q  0.6645  13.43$  18.03$  17.39$
|384>   Q  -1.3290  12.68$  17.64$  17.55$
|385>   Q  0.6645  18.49$  17.61$  14.86$
|386>   Q  0.6645  19.31$  18$  13.61$
|387>   Q  -1.3290  18.91$  17.49$  14.14$
|388>   Q  0.6645  13.19$  6.01$  1.93$
|389>   Q  0.6645  13.37$  6.86$  3.2$
|390>   Q  -1.3290  13.1$  6.7$  2.42$
|391>   Q  0.6645  20.55$  15.44$  12.37$
|392>   Q  0.6645  20.56$  15.75$  10.83$
|393>   Q  -1.3290  20.68$  15.27$  11.52$
|394>   Q  0.6645  13.65$  10.21$  5.72$
|395>   Q  0.6645  13.46$  10.99$  4.36$
|396>   Q  -1.3290  13.25$  10.46$  5.01$
|397>   Q  0.6645  17.46$  17.67$  16.55$
|398>   Q  0.6645  18.42$  18.53$  17.35$
|399>   Q  -1.3290  17.93$  18.37$  16.69$
|400>   Q  0.6645  6.98$  9.08$  0.87$
|401>   Q  0.6645  6.92$  10.5$  1.47$
|402>   Q  -1.3290  7.22$  9.88$  0.95$
|403>   Q  0.6645  10.36$  17.76$  14.11$
|404>   Q  0.6645  10.54$  16.71$  15.28$
|405>   Q  -1.3290  10.3$  17.03$  14.52$
|406>   Q  0.6645  8.58$  13.88$  19.81$
|407>   Q  0.6645  8.87$  12.5$  20.48$
|408>   Q  -1.3290  8.39$  13.14$  20.12$
|409>   Q  0.6645  3.2$  18.47$  3.58$
|410>   Q  0.6645  2.95$  17.16$  4.46$
|411>   Q  -1.3290  2.8$  17.76$  3.86$
|412>   Q  0.6645  3.75$  8.86$  8.58$
|413>   Q  0.6645  3.88$  7.4$  8.98$
|414>   Q  -1.3290  3.48$  8.1$  8.69$
|415>   Q  0.6645  12.98$  11.94$  17.9$
|416>   Q  0.6645  12.82$  13.39$  18.35$
|417>   Q  -1.3290  12.61$  12.68$  17.97$
|418>   Q  0.6645  15.21$  4.66$  8.19$
|419>   Q  0.6645  14.77$  4.5$  6.63$
|420>   Q  -1.3290  14.68$  4.47$  7.5$
|421>   Q  0.6645  7.62$  10.35$  18.16$
|422>   Q  0.6645  7.45$  11.54$  19.05$
|423>   Q  -1.3290  7.26$  11.07$  18.42$
|424>   Q  0.6645  8.92$  8.1$  19.54$
|425>   Q  0.6645  10.09$  7.62$  20.47$
|426>   Q  -1.3290  9.3$  7.72$  20.22$
|427>   Q  0.6645  17.39$  15.76$  15.07$
|428>   Q  0.6645  15.99$  15.89$  15.56$
|429>   Q  -1.3290  16.83$  15.97$  15.62$
|430>   Q  0.6645  2.69$  4.47$  6.89$
|431>   Q  0.6645  2.53$  3.63$  8.08$
|432>   Q  -1.3290  2.92$  4.2$  7.63$
|433>   Q  0.6645  2.96$  16.78$  8.97$
|434>   Q  0.6645  1.61$  16.65$  8.57$
|435>   Q  -1.3290  2.18$  17.04$  8.97$
|436>   Q  0.6645  12.38$  2.36$  14.31$
|437>   Q  0.6645  12.17$  3.17$  13.09$
|438>   Q  -1.3290  12.08$  2.49$  13.57$
|439>   Q  0.6645  9.19$  3.17$  14.94$
|440>   Q  0.6645  10.35$  2.52$  14.21$
|441>   Q  -1.3290  9.56$  2.68$  14.31$
|442>   Q  0.6645  20.55$  10.2$  15.43$
|443>   Q  0.6645  19.74$  11.3$  14.93$
|444>   Q  -1.3290  20.43$  10.89$  15.03$
|445>   Q  0.6645  7.01$  18.15$  4.38$
|446>   Q  0.6645  7.79$  19.29$  4.94$
|447>   Q  -1.3290  7.14$  18.98$  4.53$
|448>   Q  0.6645  16.93$  14.06$  19.1$
|449>   Q  0.6645  16.8$  12.55$  19.64$
|450>   Q  -1.3290  16.55$  13.36$  19.41$
|451>   Q  0.6645  11.49$  6.57$  5.77$
|452>   Q  0.6645  12.53$  7.67$  5.6$
|453>   Q  -1.3290  11.75$  7.39$  5.68$
|454>   Q  0.6645  2.13$  16.93$  15.13$
|455>   Q  0.6645  3.27$  16.32$  14.53$
|456>   Q  -1.3290  2.92$  16.78$  15.09$
|457>   Q  0.6645  10.5$  9.77$  2.68$
|458>   Q  0.6645  10.61$  10.63$  1.47$
|459>   Q  -1.3290  10.81$  10.37$  2.23$
|460>   Q  0.6645  18.59$  7.47$  6.56$
|461>   Q  0.6645  19.27$  8.69$  7$
|462>   Q  -1.3290  18.67$  8.3$  6.66$
|463>   Q  0.6645  14.84$  3.45$  4.53$
|464>   Q  0.6645  13.97$  4.69$  4.81$
|465>   Q  -1.3290  14.68$  4.28$  4.77$
|466>   Q  0.6645  15.25$  10.6$  18.41$
|467>   Q  0.6645  14.01$  9.57$  18.27$
|468>   Q  -1.3290  14.42$  10.35$  18.27$
|469>   Q  0.6645  14.47$  8.98$  7.56$
|470>   Q  0.6645  13.01$  9.57$  7.61$
|471>   Q  -1.3290  13.85$  9.59$  7.46$
|472>   Q  0.6645  15.07$  5.52$  18.42$
|473>   Q  0.6645  16.18$  4.47$  17.9$
|474>   Q  -1.3290  15.87$  5.17$  18.29$
|475>   Q  0.6645  12.5$  7.92$  20.79$
|476>   Q  0.6645  12.22$  7.65$  22.29$
|477>   Q  -1.3290  12.06$  7.58$  21.44$
|478>   Q  0.6645  21.03$  7.97$  13.3$
|479>   Q  0.6645  22.07$  6.82$  13.8$
|480>   Q  -1.3290  21.55$  7.51$  13.85$
|481>   Q  0.6645  4.17$  6.58$  15.61$
|482>   Q  0.6645  2.79$  7.47$  15.56$
|483>   Q  -1.3290  3.3$  6.74$  15.63$
|484>   Q  0.6645  12.62$  18.03$  12.28$
|485>   Q  0.6645  14.18$  18.06$  11.93$
|486>   Q  -1.3290  13.42$  17.75$  12.22$
|487>   Q  0.6645  14.61$  3.92$  11.34$
|488>   Q  0.6645  15.99$  3.98$  10.98$
|489>   Q  -1.3290  15.26$  3.65$  10.99$
|490>   Q  0.6645  6.57$  12.42$  4.11$
|491>   Q  0.6645  7.8$  13.19$  4.31$
|492>   Q  -1.3290  7.06$  12.94$  4.54$
|493>   Q  0.6645  9.13$  10.34$  21.44$
|494>   Q  0.6645  9.96$  10.65$  20.41$
|495>   Q  -1.3290  9.74$  10.75$  21.14$
|496>   Q  0.6645  5.07$  11.68$  13.16$
|497>   Q  0.6645  4.51$  11.82$  14.58$
|498>   Q  -1.3290  5.06$  11.98$  13.96$
|499>   Q  0.6645  2.93$  14.72$  5.67$
|500>   Q  0.6645  3.78$  15.58$  6.69$
|501>   Q  -1.3290  3.44$  15.36$  5.94$
|502>   Q  0.6645  3.39$  14.65$  15.83$
|503>   Q  0.6645  4.03$  13.39$  16.11$
|504>   Q  -1.3290  4$  14.19$  16.08$
|505>   Q  0.6645  13.88$  2.78$  16.35$
|506>   Q  0.6645  14.55$  2.51$  14.96$
|507>   Q  -1.3290  14.05$  2.36$  15.64$
|508>   Q  0.6645  12.58$  1.71$  18.23$
|509>   Q  0.6645  11.34$  2.62$  17.96$
|510>   Q  -1.3290  12.17$  2.45$  18.02$
|511>   Q  0.6645  4.46$  21.04$  12.27$
|512>   Q  0.6645  4.53$  19.57$  11.85$
|513>   Q  -1.3290  4.5$  20.41$  11.73$
|514>   Q  0.6645  20.38$  10.17$  12.83$
|515>   Q  0.6645  19.43$  9.27$  11.89$
|516>   Q  -1.3290  19.98$  9.43$  12.52$
|517>   Q  0.6645  0.49$  11.66$  14.71$
|518>   Q  0.6645  1.03$  13.05$  15.1$
|519>   Q  -1.3290  0.95$  12.37$  14.6$
|520>   Q  0.6645  5.34$  6.1$  9.59$
|521>   Q  0.6645  4.04$  5.41$  9.19$
|522>   Q  -1.3290  4.53$  5.92$  9.67$
|523>   Q  0.6645  19.13$  10.77$  5.43$
|524>   Q  0.6645  19.55$  11.84$  6.27$
|525>   Q  -1.3290  19.41$  11.51$  5.53$
|526>   Q  0.6645  17.8$  3.33$  11.86$
|527>   Q  0.6645  18.52$  4.7$  11.82$
|528>   Q  -1.3290  17.99$  4.09$  11.58$
|529>   Q  0.6645  9.73$  13.47$  2.6$
|530>   Q  0.6645  8.53$  14.34$  2$
|531>   Q  -1.3290  8.99$  13.9$  2.62$
|532>   Q  0.6645  18.25$  9.4$  13.8$
|533>   Q  0.6645  17.23$  8.82$  13.04$
|534>   Q  -1.3290  17.48$  9.2$  13.68$
|535>   Q  0.6645  4.76$  1.5$  12.95$
|536>   Q  0.6645  5.15$  2.31$  11.75$
|537>   Q  -1.3290  4.61$  1.89$  12.25$
|538>   Q  0.6645  13.76$  16.52$  7.63$
|539>   Q  0.6645  15$  16.02$  6.66$
|540>   Q  -1.3290  14.54$  16.57$  7.17$
|541>   Q  0.6645  9.32$  13.16$  16.05$
|542>   Q  0.6645  8.01$  12.47$  16.75$
|543>   Q  -1.3290  8.54$  13.09$  16.42$
|544>   Q  0.6645  7.53$  8.54$  14.84$
|545>   Q  0.6645  8.82$  9.01$  15.71$
|546>   Q  -1.3290  8$  8.87$  15.53$
|547>   Q  0.6645  6.4$  12.74$  2.02$
|548>   Q  0.6645  5.2$  11.86$  2.26$
|549>   Q  -1.3290  6.01$  12.04$  2.3$
|550>   Q  0.6645  6.99$  15.39$  13$
|551>   Q  0.6645  7.32$  16.62$  13.63$
|552>   Q  -1.3290  7$  16.24$  13.03$
|553>   Q  0.6645  17.1$  9.41$  4.96$
|554>   Q  0.6645  16.23$  10.37$  4.12$
|555>   Q  -1.3290  16.86$  10.17$  4.67$
|556>   Q  0.6645  4.58$  10.36$  4.92$
|557>   Q  0.6645  5.24$  11.73$  5.16$
|558>   Q  -1.3290  4.65$  11.15$  5.26$
|559>   Q  0.6645  6.78$  3.24$  7.13$
|560>   Q  0.6645  8.3$  3.4$  7.29$
|561>   Q  -1.3290  7.5$  3.38$  7.56$
|562>   Q  0.6645  5.14$  16.71$  8.06$
|563>   Q  0.6645  4.89$  15.78$  9.14$
|564>   Q  -1.3290  4.71$  16.14$  8.43$
|565>   Q  0.6645  15.84$  12.27$  2.89$
|566>   Q  0.6645  14.93$  12.69$  4.15$
|567>   Q  -1.3290  15.26$  12.15$  3.56$
|568>   Q  0.6645  3.65$  7.45$  12.38$
|569>   Q  0.6645  4.27$  6.17$  11.9$
|570>   Q  -1.3290  4.11$  6.78$  12.45$
|571>   Q  0.6645  4.34$  15.62$  1.75$
|572>   Q  0.6645  5.45$  16.34$  2.75$
|573>   Q  -1.3290  4.99$  16.16$  2.02$
|574>   Q  0.6645  21.25$  9.11$  8.55$
|575>   Q  0.6645  21.36$  7.66$  8.41$
|576>   Q  -1.3290  21.14$  8.43$  8.16$
|577>   Q  0.6645  10.18$  5.8$  7.45$
|578>   Q  0.6645  8.96$  5.59$  8.27$
|579>   Q  -1.3290  9.38$  5.64$  7.57$
|580>   Q  0.6645  15.05$  7.65$  4.35$
|581>   Q  0.6645  14.01$  8.79$  4.58$
|582>   Q  -1.3290  14.31$  8$  4.59$
|583>   Q  0.6645  10.35$  16.98$  4.16$
|584>   Q  0.6645  11.31$  16.87$  5.33$
|585>   Q  -1.3290  10.57$  16.84$  4.95$
|586>   Q  0.6645  3.79$  11.11$  16.43$
|587>   Q  0.6645  2.66$  11.09$  15.38$
|588>   Q  -1.3290  3.25$  11.44$  15.84$
|589>   Q  0.6645  18.36$  16.09$  18.74$
|590>   Q  0.6645  17.53$  15.83$  17.46$
|591>   Q  -1.3290  17.65$  15.95$  18.28$
|592>   Q  0.6645  4.19$  12.1$  19.06$
|593>   Q  0.6645  5.2$  11.03$  18.43$
|594>   Q  -1.3290  4.47$  11.31$  18.83$
|595>   Q  0.6645  7.38$  5.59$  2.2$
|596>   Q  0.6645  7.54$  5.52$  3.68$
|597>   Q  -1.3290  7.32$  5.21$  2.92$
|598>   Q  0.6645  2.83$  17.74$  11.9$
|599>   Q  0.6645  1.54$  17.52$  11.14$
|600>   Q  -1.3290  2.03$  17.79$  11.78$
|601>   Q  0.6645  15.9$  12.15$  7.13$
|602>   Q  0.6645  16.36$  11.72$  5.66$
|603>   Q  -1.3290  16.13$  12.24$  6.3$
|604>   Q  0.6645  10.84$  7.92$  17.09$
|605>   Q  0.6645  10.76$  6.38$  17.36$
|606>   Q  -1.3290  10.58$  7.11$  16.97$
|607>   Q  0.6645  14.89$  12.64$  20.4$
|608>   Q  0.6645  14.11$  11.29$  20.28$
|609>   Q  -1.3290  14.25$  12.08$  20.59$
|610>   Q  0.6645  13.12$  3.33$  8.34$
|611>   Q  0.6645  12.86$  1.83$  8.16$
|612>   Q  -1.3290  12.74$  2.56$  8.49$
|613>   Q  0.6645  19.87$  16.78$  8.95$
|614>   Q  0.6645  21.06$  17.88$  9.05$
|615>   Q  -1.3290  20.57$  17.24$  9.29$
|616>   Q  0.6645  13.76$  15.91$  2.07$
|617>   Q  0.6645  13.28$  16.78$  3.22$
|618>   Q  -1.3290  13.27$  16.49$  2.42$
|619>   Q  0.6645  11.03$  3.21$  9.38$
|620>   Q  0.6645  9.69$  2.44$  9.26$
|621>   Q  -1.3290  10.19$  3.08$  9.44$
|622>   Q  0.6645  5.26$  5.04$  13.87$
|623>   Q  0.6645  4.72$  3.6$  13.53$
|624>   Q  -1.3290  5.17$  4.2$  13.95$
|625>   Q  0.6645  6.66$  8.7$  18.17$
|626>   Q  0.6645  7.72$  8.36$  17.19$
|627>   Q  -1.3290  7.45$  8.46$  17.95$
|628>   Q  0.6645  18.63$  5.52$  16.14$
|629>   Q  0.6645  20.03$  5.24$  15.68$
|630>   Q  -1.3290  19.26$  5.02$  15.9$
|631>   Q  0.6645  20.71$  12.28$  19.06$
|632>   Q  0.6645  19.75$  11.97$  17.78$
|633>   Q  -1.3290  20.43$  11.88$  18.33$
|634>   Q  0.6645  17.23$  8.64$  10.5$
|635>   Q  0.6645  17.96$  9.94$  10.16$
|636>   Q  -1.3290  17.82$  9.24$  10.58$
|637>   Q  0.6645  5.84$  9.39$  16.09$
|638>   Q  0.6645  4.33$  9.25$  16.15$
|639>   Q  -1.3290  5.1$  9.29$  16.48$
|640>   Q  0.6645  7.3$  16.9$  15.94$
|641>   Q  0.6645  8.6$  17.73$  15.28$
|642>   Q  -1.3290  7.73$  17.51$  15.48$
|643>   Q  0.6645  2.63$  12.43$  5.41$
|644>   Q  0.6645  1.31$  13$  5.35$
|645>   Q  -1.3290  2.07$  12.96$  5.66$
|646>   Q  0.6645  6.84$  3.3$  9.94$
|647>   Q  0.6645  7.44$  3.68$  11.21$
|648>   Q  -1.3290  6.83$  3.36$  10.74$
|649>   Q  0.6645  17.61$  17.79$  8.59$
|650>   Q  0.6645  16.17$  17.97$  8.06$
|651>   Q  -1.3290  16.87$  18.23$  8.46$
|652> *
|653> 
|654>                          ****END OF INPUT****
================================================================================

                     *******************************
                     * Energy+Gradient Calculation *
                     *******************************

---------------------------------
CARTESIAN COORDINATES (ANGSTROEM)
---------------------------------
  C     11.940000   11.100000   11.840000
  H     11.810000   12.130000   11.710000
  H     12.260000   10.680000   10.920000
  C     10.530000   10.570000   12.230000
  H     10.760000    9.710000   12.900000
  H     10.150000   11.340000   12.850000
  C      9.510000   10.260000   11.170000
  H      8.580000   10.150000   11.680000
  H      9.710000    9.310000   10.740000
  C      9.320000   11.470000   10.200000
  H     10.230000   11.720000    9.690000
  H      9.010000   12.400000   10.660000
  O      8.380000   11.090000    9.240000
  H      8.060000   11.860000    8.820000
  O     12.980000   10.910000   12.840000
  H     13.660000   11.600000   12.620000
  O      5.910000   12.690000    9.490000
  H      6.700000   13.230000    9.290000
  H      5.450000   13.350000   10.010000
  O     11.400000   12.160000    7.590000
  H     10.810000   12.110000    6.820000
  H     10.940000   12.800000    8.180000
  O     13.070000    7.470000   12.110000
  H     12.700000    8.040000   11.450000
  H     12.440000    7.520000   12.880000
  O      9.190000    7.070000   12.100000
  H      8.420000    7.600000   11.970000
  H      8.880000    6.120000   12.120000
  O     12.420000    8.810000   14.690000
  H     13.040000    8.040000   14.890000
  H     12.860000    9.430000   14.020000
  O      7.930000    8.580000    8.140000
  H      8.800000    8.890000    7.900000
  H      7.710000    9.550000    8.480000
  O      2.790000   12.650000    8.480000
  H      2.880000   12.770000    7.550000
  H      3.680000   12.320000    8.740000
  O     10.750000    9.120000    7.630000
  H     11.000000    8.670000    6.760000
  H     10.790000   10.100000    7.500000
  O     15.140000   12.830000   11.630000
  H     15.320000   12.630000   10.690000
  H     15.560000   12.280000   12.230000
  O     11.080000    7.310000   10.010000
  H     10.270000    7.220000   10.520000
  H     10.920000    8.080000    9.380000
  O     10.890000   12.850000   14.890000
  H     10.750000   13.470000   14.150000
  H     11.800000   12.900000   15.130000
  O      6.510000    6.230000    7.860000
  H      7.010000    7.060000    8.090000
  H      7.220000    5.590000    7.750000
  O     12.320000   14.200000    5.640000
  H     11.910000   13.760000    4.920000
  H     12.080000   13.710000    6.390000
  O     15.760000    7.220000   11.300000
  H     16.400000    6.920000   12.040000
  H     14.910000    7.460000   11.680000
  O      7.520000    9.740000    5.720000
  H      6.830000    9.500000    5.110000
  H      7.210000    9.120000    6.440000
  O     10.420000   14.590000    8.740000
  H      9.910000   14.900000    8.000000
  H     11.170000   15.190000    8.830000
  O      8.020000   13.350000    7.370000
  H      7.990000   14.300000    7.180000
  H      7.740000   13.060000    6.490000
  O     10.890000   14.740000   12.730000
  H     10.740000   15.560000   13.250000
  H     11.680000   14.840000   12.230000
  O     13.840000   12.630000    8.850000
  H     13.040000   12.240000    8.450000
  H     13.960000   13.460000    8.440000
  O      8.740000    4.320000   12.260000
  H      8.970000    3.570000   12.870000
  H      9.390000    4.010000   11.610000
  O      6.750000    8.170000   12.600000
  H      5.950000    7.660000   12.640000
  H      6.420000    9.080000   12.510000
  O     12.490000    4.760000   11.670000
  H     12.650000    4.780000   10.730000
  H     12.490000    5.730000   11.820000
  O      5.550000   10.640000   11.840000
  H      4.850000   10.140000   11.400000
  H      5.910000   11.250000   11.140000
  O     10.350000   10.190000   15.800000
  H     11.140000    9.710000   15.510000
  H     10.430000   11.060000   15.420000
  O      5.110000   10.440000    8.060000
  H      5.020000   10.760000    7.160000
  H      5.310000   11.200000    8.560000
  O     10.860000    6.150000   14.050000
  H     10.390000    6.650000   13.360000
  H     10.870000    6.660000   14.890000
  O      8.080000   15.210000   10.450000
  H      8.040000   14.970000   11.340000
  H      8.890000   14.820000   10.150000
  O     15.980000   11.930000   14.130000
  H     16.890000   12.190000   14.300000
  H     16.200000   10.990000   14.100000
  O     13.780000    6.300000   15.060000
  H     12.890000    6.060000   14.730000
  H     14.360000    6.460000   14.330000
  O     13.500000   14.920000   11.180000
  H     14.060000   14.220000   11.560000
  H     13.740000   15.750000   11.580000
  O      5.330000   15.220000   10.710000
  H      4.950000   15.480000   11.510000
  H      6.240000   15.580000   10.740000
  O     10.000000   11.380000    5.460000
  H      9.270000   10.750000    5.540000
  H     10.600000   10.970000    4.740000
  Q      6.350000   14.900000    0.790000
  Q      7.230000   14.130000   -0.140000
  Q      6.930000   14.320000    0.580000
  Q      4.290000    8.670000    0.820000
  Q      4.840000    7.220000    1.030000
  Q      4.570000    8.000000    1.280000
  Q     16.620000    5.120000   13.460000
  Q     16.920000    6.250000   14.420000
  Q     16.860000    5.920000   13.640000
  Q     17.730000   15.270000    8.360000
  Q     18.770000   15.580000    7.310000
  Q     18.350000   15.710000    8.050000
  Q     16.100000   15.460000   12.590000
  Q     17.100000   16.440000   12.070000
  Q     16.840000   15.680000   12.280000
  Q     19.910000   15.490000   17.400000
  Q     20.420000   14.270000   18.150000
  Q     20.050000   14.670000   17.510000
  Q      9.980000   15.210000   18.060000
  Q      9.170000   16.220000   18.880000
  Q      9.620000   15.530000   18.760000
  Q     10.470000    2.340000    6.090000
  Q     10.290000    3.500000    7.140000
  Q     10.150000    3.060000    6.410000
  Q      2.860000   14.540000   12.710000
  Q      3.970000   14.210000   13.820000
  Q      3.430000   14.680000   13.330000
  Q      7.360000   17.960000    9.120000
  Q      6.540000   18.830000    8.160000
  Q      6.940000   18.150000    8.420000
  Q     16.200000   18.600000   10.190000
  Q     16.120000   19.360000   11.520000
  Q     15.860000   18.810000   10.940000
  Q      1.410000   17.740000    6.030000
  Q      0.680000   16.480000    6.660000
  Q      0.740000   17.230000    6.260000
  Q     11.030000   11.460000   18.640000
  Q     10.390000   10.480000   17.780000
  Q     10.700000   10.730000   18.500000
  Q      8.170000    1.300000   14.200000
  Q      7.420000    0.860000   15.380000
  Q      7.710000    0.740000   14.630000
  Q     11.730000    4.850000    4.060000
  Q     11.490000    4.190000    5.540000
  Q     11.920000    4.650000    4.930000
  Q      1.580000    7.020000    9.040000
  Q      1.290000    6.050000   10.200000
  Q      1.160000    6.710000    9.670000
  Q      9.690000   18.390000   17.840000
  Q     10.110000   19.520000   16.990000
  Q     10.060000   18.720000   17.170000
  Q     14.270000   16.350000   13.770000
  Q     14.210000   14.880000   14.330000
  Q     14.560000   15.590000   14.010000
  Q      8.850000    8.210000    4.230000
  Q     10.410000    7.910000    4.050000
  Q      9.640000    8.170000    3.830000
  Q     17.190000    5.640000    9.960000
  Q     17.760000    5.480000    8.500000
  Q     17.180000    5.550000    9.110000
  Q      2.920000    8.720000   10.690000
  Q      2.700000    9.790000   11.860000
  Q      3.060000    9.090000   11.470000
  Q      9.050000   16.270000    6.000000
  Q      7.910000   16.870000    7.010000
  Q      8.330000   16.260000    6.500000
  Q     19.040000   14.860000    5.010000
  Q     18.360000   13.540000    5.340000
  Q     18.530000   14.360000    5.480000
  Q     14.540000    7.570000   19.630000
  Q     13.430000    7.040000   18.870000
  Q     13.880000    7.660000   19.140000
  Q      3.500000   13.270000    1.200000
  Q      3.870000   13.920000   -0.110000
  Q      3.610000   13.920000    0.690000
  Q      2.850000   11.420000    3.080000
  Q      2.650000   11.640000    1.620000
  Q      3.110000   11.670000    2.320000
  Q     17.050000   14.100000   10.390000
  Q     17.080000   12.810000    9.550000
  Q     17.070000   13.660000    9.680000
  Q     16.820000    8.090000   16.730000
  Q     16.850000    6.680000   17.350000
  Q     16.970000    7.280000   16.720000
  Q     12.780000    4.420000   17.860000
  Q     13.760000    5.220000   17.010000
  Q     13.300000    5.060000   17.680000
  Q     20.990000   13.150000   11.790000
  Q     21.430000   12.420000   13.020000
  Q     20.930000   12.570000   12.380000
  Q     14.590000   15.090000   18.890000
  Q     13.340000   15.850000   18.440000
  Q     13.820000   15.190000   18.590000
  Q      8.230000    6.460000    5.840000
  Q      6.780000    6.850000    5.480000
  Q      7.600000    6.690000    5.340000
  Q      7.480000   14.760000   17.050000
  Q      6.040000   15.210000   16.800000
  Q      6.830000   15.310000   17.020000
  Q     12.990000   15.800000    9.650000
  Q     12.170000   17.020000    9.230000
  Q     12.630000   16.320000    9.120000
  Q      5.320000    8.520000    3.060000
  Q      4.830000    8.200000    4.450000
  Q      5.240000    8.650000    3.880000
  Q     11.270000   14.440000   16.600000
  Q     11.780000   15.860000   16.860000
  Q     11.210000   15.270000   16.660000
  Q      9.320000   18.170000   10.170000
  Q      8.450000   16.890000   10.590000
  Q      8.620000   17.720000   10.430000
  Q      5.920000    5.540000   17.060000
  Q      6.120000    6.990000   16.860000
  Q      6.000000    6.230000   16.600000
  Q     11.770000   19.290000    9.960000
  Q     10.860000   19.090000    8.750000
  Q     11.220000   18.860000    9.490000
  Q     11.720000   12.260000    2.750000
  Q     12.380000   13.630000    2.430000
  Q     11.840000   13.120000    2.820000
  Q     15.970000    2.580000   12.840000
  Q     16.810000    2.750000   14.010000
  Q     16.160000    2.940000   13.550000
  Q      7.560000   -0.190000   10.960000
  Q      7.270000    1.290000   10.800000
  Q      7.300000    0.500000   10.540000
  Q      5.930000   16.850000   19.680000
  Q      6.310000   15.910000   18.600000
  Q      6.050000   16.080000   19.400000
  Q     20.320000   12.210000    8.610000
  Q     19.330000   13.280000    8.210000
  Q     20.000000   12.800000    8.120000
  Q      5.630000    1.940000   16.610000
  Q      6.330000    3.150000   15.810000
  Q      6.250000    2.500000   16.380000
  Q      7.860000    5.510000   15.840000
  Q      9.320000    5.240000   15.330000
  Q      8.600000    5.060000   15.750000
  Q      6.540000   13.280000   13.810000
  Q      7.710000   13.930000   14.410000
  Q      7.170000   13.820000   13.820000
  Q     16.920000    8.450000    7.860000
  Q     16.210000    7.290000    8.660000
  Q     16.340000    8.110000    8.430000
  Q     10.290000   15.390000   22.210000
  Q     10.170000   15.220000   20.710000
  Q     10.550000   15.170000   21.460000
  Q      5.160000   17.410000   13.020000
  Q      4.360000   18.090000   14.030000
  Q      4.560000   17.930000   13.240000
  Q      1.270000   14.360000    7.510000
  Q     -0.190000   14.460000    7.850000
  Q      0.560000   14.770000    7.720000
  Q     18.730000    7.690000   16.150000
  Q     20.070000    7.620000   15.210000
  Q     19.570000    7.870000   15.910000
  Q     19.180000   13.100000   13.360000
  Q     18.110000   14.180000   13.370000
  Q     18.540000   13.530000   13.670000
  Q      2.500000    7.380000    6.070000
  Q      1.290000    7.940000    6.780000
  Q      1.670000    7.400000    6.250000
  Q      1.050000    9.880000    4.100000
  Q      0.690000   11.280000    4.270000
  Q      1.190000   10.680000    4.010000
  Q     10.200000   15.530000    2.780000
  Q     11.030000   16.510000    2.200000
  Q     10.330000   16.150000    2.250000
  Q      1.880000   14.190000   10.110000
  Q      0.960000   14.690000   11.210000
  Q      1.620000   14.270000   10.880000
  Q      5.010000    6.660000    6.670000
  Q      4.800000    6.070000    5.290000
  Q      4.760000    6.690000    5.890000
  Q     14.900000   20.780000   14.140000
  Q     15.330000   19.730000   15.070000
  Q     15.460000   20.350000   14.570000
  Q      9.330000    1.690000   19.070000
  Q      8.890000    2.720000   18.040000
  Q      9.370000    2.080000   18.340000
  Q     11.320000    5.990000    2.170000
  Q      9.840000    6.100000    2.630000
  Q     10.580000    5.690000    2.460000
  Q      4.770000    2.050000    6.430000
  Q      4.720000    3.470000    6.880000
  Q      4.920000    2.860000    6.360000
  Q     17.420000   12.430000   16.800000
  Q     18.730000   13.060000   16.200000
  Q     18.250000   12.430000   16.540000
  Q     15.860000   10.130000    9.170000
  Q     15.140000   11.520000    9.120000
  Q     15.820000   10.980000    9.230000
  Q     19.420000    7.840000   19.310000
  Q     19.600000    8.350000   17.900000
  Q     19.460000    8.440000   18.710000
  Q     16.730000   10.460000   20.290000
  Q     17.710000   10.180000   19.150000
  Q     17.040000   10.580000   19.520000
  Q      8.580000    7.820000    1.970000
  Q      8.590000    7.360000    0.410000
  Q      8.380000    7.340000    1.260000
  Q     15.440000   14.130000    5.600000
  Q     14.040000   14.710000    5.340000
  Q     14.870000   14.620000    5.210000
  Q      4.800000   20.220000    9.670000
  Q      6.200000   20.640000    9.590000
  Q      5.510000   20.380000    9.280000
  Q      1.330000    4.070000   14.300000
  Q      2.480000    5.120000   13.910000
  Q      1.820000    4.590000   13.780000
  Q     13.550000   13.250000   16.420000
  Q     14.740000   12.810000   15.580000
  Q     14.070000   13.260000   15.760000
  Q     13.490000   18.380000    4.720000
  Q     13.580000   17.330000    5.750000
  Q     13.230000   17.700000    5.100000
  Q     21.090000   10.530000   10.530000
  Q     22.120000   11.140000    9.630000
  Q     21.370000   10.830000    9.800000
  Q     11.240000   19.890000   12.550000
  Q      9.810000   19.280000   12.650000
  Q     10.640000   19.330000   12.810000
  Q      1.460000    8.910000   14.530000
  Q      1.440000    9.220000   16.060000
  Q      1.800000    9.110000   15.260000
  Q     12.950000    5.350000    8.050000
  Q     11.800000    6.170000    8.780000
  Q     12.130000    5.530000    8.300000
  Q      8.150000    4.790000   21.350000
  Q      8.020000    6.010000   20.390000
  Q      7.750000    5.330000   20.800000
  Q      7.810000   20.840000   13.400000
  Q      7.260000   19.520000   12.600000
  Q      7.740000   20.250000   12.740000
  Q      2.000000   12.340000   11.610000
  Q      2.030000   11.670000   12.970000
  Q      2.030000   11.670000   12.110000
  Q      6.560000   15.790000    4.980000
  Q      5.050000   16.020000    4.780000
  Q      5.870000   16.160000    4.670000
  Q     13.730000   19.970000   10.770000
  Q     13.390000   21.340000   10.190000
  Q     13.240000   20.630000   10.590000
  Q     11.880000   17.940000   17.440000
  Q     13.430000   18.030000   17.390000
  Q     12.680000   17.640000   17.550000
  Q     18.490000   17.610000   14.860000
  Q     19.310000   18.000000   13.610000
  Q     18.910000   17.490000   14.140000
  Q     13.190000    6.010000    1.930000
  Q     13.370000    6.860000    3.200000
  Q     13.100000    6.700000    2.420000
  Q     20.550000   15.440000   12.370000
  Q     20.560000   15.750000   10.830000
  Q     20.680000   15.270000   11.520000
  Q     13.650000   10.210000    5.720000
  Q     13.460000   10.990000    4.360000
  Q     13.250000   10.460000    5.010000
  Q     17.460000   17.670000   16.550000
  Q     18.420000   18.530000   17.350000
  Q     17.930000   18.370000   16.690000
  Q      6.980000    9.080000    0.870000
  Q      6.920000   10.500000    1.470000
  Q      7.220000    9.880000    0.950000
  Q     10.360000   17.760000   14.110000
  Q     10.540000   16.710000   15.280000
  Q     10.300000   17.030000   14.520000
  Q      8.580000   13.880000   19.810000
  Q      8.870000   12.500000   20.480000
  Q      8.390000   13.140000   20.120000
  Q      3.200000   18.470000    3.580000
  Q      2.950000   17.160000    4.460000
  Q      2.800000   17.760000    3.860000
  Q      3.750000    8.860000    8.580000
  Q      3.880000    7.400000    8.980000
  Q      3.480000    8.100000    8.690000
  Q     12.980000   11.940000   17.900000
  Q     12.820000   13.390000   18.350000
  Q     12.610000   12.680000   17.970000
  Q     15.210000    4.660000    8.190000
  Q     14.770000    4.500000    6.630000
  Q     14.680000    4.470000    7.500000
  Q      7.620000   10.350000   18.160000
  Q      7.450000   11.540000   19.050000
  Q      7.260000   11.070000   18.420000
  Q      8.920000    8.100000   19.540000
  Q     10.090000    7.620000   20.470000
  Q      9.300000    7.720000   20.220000
  Q     17.390000   15.760000   15.070000
  Q     15.990000   15.890000   15.560000
  Q     16.830000   15.970000   15.620000
  Q      2.690000    4.470000    6.890000
  Q      2.530000    3.630000    8.080000
  Q      2.920000    4.200000    7.630000
  Q      2.960000   16.780000    8.970000
  Q      1.610000   16.650000    8.570000
  Q      2.180000   17.040000    8.970000
  Q     12.380000    2.360000   14.310000
  Q     12.170000    3.170000   13.090000
  Q     12.080000    2.490000   13.570000
  Q      9.190000    3.170000   14.940000
  Q     10.350000    2.520000   14.210000
  Q      9.560000    2.680000   14.310000
  Q     20.550000   10.200000   15.430000
  Q     19.740000   11.300000   14.930000
  Q     20.430000   10.890000   15.030000
  Q      7.010000   18.150000    4.380000
  Q      7.790000   19.290000    4.940000
  Q      7.140000   18.980000    4.530000
  Q     16.930000   14.060000   19.100000
  Q     16.800000   12.550000   19.640000
  Q     16.550000   13.360000   19.410000
  Q     11.490000    6.570000    5.770000
  Q     12.530000    7.670000    5.600000
  Q     11.750000    7.390000    5.680000
  Q      2.130000   16.930000   15.130000
  Q      3.270000   16.320000   14.530000
  Q      2.920000   16.780000   15.090000
  Q     10.500000    9.770000    2.680000
  Q     10.610000   10.630000    1.470000
  Q     10.810000   10.370000    2.230000
  Q     18.590000    7.470000    6.560000
  Q     19.270000    8.690000    7.000000
  Q     18.670000    8.300000    6.660000
  Q     14.840000    3.450000    4.530000
  Q     13.970000    4.690000    4.810000
  Q     14.680000    4.280000    4.770000
  Q     15.250000   10.600000   18.410000
  Q     14.010000    9.570000   18.270000
  Q     14.420000   10.350000   18.270000
  Q     14.470000    8.980000    7.560000
  Q     13.010000    9.570000    7.610000
  Q     13.850000    9.590000    7.460000
  Q     15.070000    5.520000   18.420000
  Q     16.180000    4.470000   17.900000
  Q     15.870000    5.170000   18.290000
  Q     12.500000    7.920000   20.790000
  Q     12.220000    7.650000   22.290000
  Q     12.060000    7.580000   21.440000
  Q     21.030000    7.970000   13.300000
  Q     22.070000    6.820000   13.800000
  Q     21.550000    7.510000   13.850000
  Q      4.170000    6.580000   15.610000
  Q      2.790000    7.470000   15.560000
  Q      3.300000    6.740000   15.630000
  Q     12.620000   18.030000   12.280000
  Q     14.180000   18.060000   11.930000
  Q     13.420000   17.750000   12.220000
  Q     14.610000    3.920000   11.340000
  Q     15.990000    3.980000   10.980000
  Q     15.260000    3.650000   10.990000
  Q      6.570000   12.420000    4.110000
  Q      7.800000   13.190000    4.310000
  Q      7.060000   12.940000    4.540000
  Q      9.130000   10.340000   21.440000
  Q      9.960000   10.650000   20.410000
  Q      9.740000   10.750000   21.140000
  Q      5.070000   11.680000   13.160000
  Q      4.510000   11.820000   14.580000
  Q      5.060000   11.980000   13.960000
  Q      2.930000   14.720000    5.670000
  Q      3.780000   15.580000    6.690000
  Q      3.440000   15.360000    5.940000
  Q      3.390000   14.650000   15.830000
  Q      4.030000   13.390000   16.110000
  Q      4.000000   14.190000   16.080000
  Q     13.880000    2.780000   16.350000
  Q     14.550000    2.510000   14.960000
  Q     14.050000    2.360000   15.640000
  Q     12.580000    1.710000   18.230000
  Q     11.340000    2.620000   17.960000
  Q     12.170000    2.450000   18.020000
  Q      4.460000   21.040000   12.270000
  Q      4.530000   19.570000   11.850000
  Q      4.500000   20.410000   11.730000
  Q     20.380000   10.170000   12.830000
  Q     19.430000    9.270000   11.890000
  Q     19.980000    9.430000   12.520000
  Q      0.490000   11.660000   14.710000
  Q      1.030000   13.050000   15.100000
  Q      0.950000   12.370000   14.600000
  Q      5.340000    6.100000    9.590000
  Q      4.040000    5.410000    9.190000
  Q      4.530000    5.920000    9.670000
  Q     19.130000   10.770000    5.430000
  Q     19.550000   11.840000    6.270000
  Q     19.410000   11.510000    5.530000
  Q     17.800000    3.330000   11.860000
  Q     18.520000    4.700000   11.820000
  Q     17.990000    4.090000   11.580000
  Q      9.730000   13.470000    2.600000
  Q      8.530000   14.340000    2.000000
  Q      8.990000   13.900000    2.620000
  Q     18.250000    9.400000   13.800000
  Q     17.230000    8.820000   13.040000
  Q     17.480000    9.200000   13.680000
  Q      4.760000    1.500000   12.950000
  Q      5.150000    2.310000   11.750000
  Q      4.610000    1.890000   12.250000
  Q     13.760000   16.520000    7.630000
  Q     15.000000   16.020000    6.660000
  Q     14.540000   16.570000    7.170000
  Q      9.320000   13.160000   16.050000
  Q      8.010000   12.470000   16.750000
  Q      8.540000   13.090000   16.420000
  Q      7.530000    8.540000   14.840000
  Q      8.820000    9.010000   15.710000
  Q      8.000000    8.870000   15.530000
  Q      6.400000   12.740000    2.020000
  Q      5.200000   11.860000    2.260000
  Q      6.010000   12.040000    2.300000
  Q      6.990000   15.390000   13.000000
  Q      7.320000   16.620000   13.630000
  Q      7.000000   16.240000   13.030000
  Q     17.100000    9.410000    4.960000
  Q     16.230000   10.370000    4.120000
  Q     16.860000   10.170000    4.670000
  Q      4.580000   10.360000    4.920000
  Q      5.240000   11.730000    5.160000
  Q      4.650000   11.150000    5.260000
  Q      6.780000    3.240000    7.130000
  Q      8.300000    3.400000    7.290000
  Q      7.500000    3.380000    7.560000
  Q      5.140000   16.710000    8.060000
  Q      4.890000   15.780000    9.140000
  Q      4.710000   16.140000    8.430000
  Q     15.840000   12.270000    2.890000
  Q     14.930000   12.690000    4.150000
  Q     15.260000   12.150000    3.560000
  Q      3.650000    7.450000   12.380000
  Q      4.270000    6.170000   11.900000
  Q      4.110000    6.780000   12.450000
  Q      4.340000   15.620000    1.750000
  Q      5.450000   16.340000    2.750000
  Q      4.990000   16.160000    2.020000
  Q     21.250000    9.110000    8.550000
  Q     21.360000    7.660000    8.410000
  Q     21.140000    8.430000    8.160000
  Q     10.180000    5.800000    7.450000
  Q      8.960000    5.590000    8.270000
  Q      9.380000    5.640000    7.570000
  Q     15.050000    7.650000    4.350000
  Q     14.010000    8.790000    4.580000
  Q     14.310000    8.000000    4.590000
  Q     10.350000   16.980000    4.160000
  Q     11.310000   16.870000    5.330000
  Q     10.570000   16.840000    4.950000
  Q      3.790000   11.110000   16.430000
  Q      2.660000   11.090000   15.380000
  Q      3.250000   11.440000   15.840000
  Q     18.360000   16.090000   18.740000
  Q     17.530000   15.830000   17.460000
  Q     17.650000   15.950000   18.280000
  Q      4.190000   12.100000   19.060000
  Q      5.200000   11.030000   18.430000
  Q      4.470000   11.310000   18.830000
  Q      7.380000    5.590000    2.200000
  Q      7.540000    5.520000    3.680000
  Q      7.320000    5.210000    2.920000
  Q      2.830000   17.740000   11.900000
  Q      1.540000   17.520000   11.140000
  Q      2.030000   17.790000   11.780000
  Q     15.900000   12.150000    7.130000
  Q     16.360000   11.720000    5.660000
  Q     16.130000   12.240000    6.300000
  Q     10.840000    7.920000   17.090000
  Q     10.760000    6.380000   17.360000
  Q     10.580000    7.110000   16.970000
  Q     14.890000   12.640000   20.400000
  Q     14.110000   11.290000   20.280000
  Q     14.250000   12.080000   20.590000
  Q     13.120000    3.330000    8.340000
  Q     12.860000    1.830000    8.160000
  Q     12.740000    2.560000    8.490000
  Q     19.870000   16.780000    8.950000
  Q     21.060000   17.880000    9.050000
  Q     20.570000   17.240000    9.290000
  Q     13.760000   15.910000    2.070000
  Q     13.280000   16.780000    3.220000
  Q     13.270000   16.490000    2.420000
  Q     11.030000    3.210000    9.380000
  Q      9.690000    2.440000    9.260000
  Q     10.190000    3.080000    9.440000
  Q      5.260000    5.040000   13.870000
  Q      4.720000    3.600000   13.530000
  Q      5.170000    4.200000   13.950000
  Q      6.660000    8.700000   18.170000
  Q      7.720000    8.360000   17.190000
  Q      7.450000    8.460000   17.950000
  Q     18.630000    5.520000   16.140000
  Q     20.030000    5.240000   15.680000
  Q     19.260000    5.020000   15.900000
  Q     20.710000   12.280000   19.060000
  Q     19.750000   11.970000   17.780000
  Q     20.430000   11.880000   18.330000
  Q     17.230000    8.640000   10.500000
  Q     17.960000    9.940000   10.160000
  Q     17.820000    9.240000   10.580000
  Q      5.840000    9.390000   16.090000
  Q      4.330000    9.250000   16.150000
  Q      5.100000    9.290000   16.480000
  Q      7.300000   16.900000   15.940000
  Q      8.600000   17.730000   15.280000
  Q      7.730000   17.510000   15.480000
  Q      2.630000   12.430000    5.410000
  Q      1.310000   13.000000    5.350000
  Q      2.070000   12.960000    5.660000
  Q      6.840000    3.300000    9.940000
  Q      7.440000    3.680000   11.210000
  Q      6.830000    3.360000   10.740000
  Q     17.610000   17.790000    8.590000
  Q     16.170000   17.970000    8.060000
  Q     16.870000   18.230000    8.460000

----------------------------
CARTESIAN COORDINATES (A.U.)
----------------------------
  NO LB      ZA    FRAG     MASS         X           Y           Z
   0 C     6.0000    0    12.011   22.563330   20.975960   22.374357
   1 H     1.0000    0     1.008   22.317666   22.922378   22.128693
   2 H     1.0000    0     1.008   23.168042   20.182275   20.635809
   3 C     6.0000    0    12.011   19.898816   19.974405   23.111351
   4 H     1.0000    0     1.008   20.333453   18.349241   24.377467
   5 H     1.0000    0     1.008   19.180720   21.429494   24.282981
   6 C     6.0000    0    12.011   17.971296   19.388590   21.108241
   7 H     1.0000    0     1.008   16.213850   19.180720   22.072001
   8 H     1.0000    0     1.008   18.349241   17.593350   20.295659
   9 C     6.0000    0    12.011   17.612248   21.675159   19.275207
  10 H     1.0000    0     1.008   19.331898   22.147590   18.311446
  11 H     1.0000    0     1.008   17.026432   23.432604   20.144481
  12 O     8.0000    0    15.999   15.835905   20.957063   17.461069
  13 H     1.0000    0     1.008   15.231193   22.412152   16.667385
  14 O     8.0000    0    15.999   24.528645   20.616912   24.264084
  15 H     1.0000    0     1.008   25.813659   21.920823   23.848344
  16 O     8.0000    0    15.999   11.168281   23.980625   17.933501
  17 H     1.0000    0     1.008   12.661165   25.001077   17.555556
  18 H     1.0000    0     1.008   10.299007   25.227844   18.916159
  19 O     8.0000    0    15.999   21.542878   22.979070   14.343021
  20 H     1.0000    0     1.008   20.427940   22.884583   12.887932
  21 H     1.0000    0     1.008   20.673604   24.188495   15.457960
  22 O     8.0000    0    15.999   24.698721   14.116254   22.884583
  23 H     1.0000    0     1.008   23.999522   15.193398   21.637364
  24 H     1.0000    0     1.008   23.508193   14.210741   24.339673
  25 O     8.0000    0    15.999   17.366583   13.360364   22.865686
  26 H     1.0000    0     1.008   15.911494   14.361919   22.620022
  27 H     1.0000    0     1.008   16.780768   11.565124   22.903481
  28 O     8.0000    0    15.999   23.470399   16.648487   27.760077
  29 H     1.0000    0     1.008   24.642029   15.193398   28.138022
  30 H     1.0000    0     1.008   24.301878   17.820117   26.493960
  31 O     8.0000    0    15.999   14.985528   16.213850   15.382371
  32 H     1.0000    0     1.008   16.629590   16.799665   14.928836
  33 H     1.0000    0     1.008   14.569788   18.046885   16.024878
  34 O     8.0000    0    15.999    5.272336   23.905036   16.024878
  35 H     1.0000    0     1.008    5.442411   24.131803   14.267432
  36 H     1.0000    0     1.008    6.954192   23.281426   16.516206
  37 O     8.0000    0    15.999   20.314556   17.234302   14.418610
  38 H     1.0000    0     1.008   20.786987   16.383926   12.774549
  39 H     1.0000    0     1.008   20.390145   19.086234   14.172946
  40 O     8.0000    0    15.999   28.610454   24.245186   21.977515
  41 H     1.0000    0     1.008   28.950604   23.867241   20.201172
  42 H     1.0000    0     1.008   29.404139   23.205837   23.111351
  43 O     8.0000    0    15.999   20.938166   13.813898   18.916159
  44 H     1.0000    0     1.008   19.407487   13.643823   19.879919
  45 H     1.0000    0     1.008   20.635809   15.268987   17.725631
  46 O     8.0000    0    15.999   20.579118   24.282981   28.138022
  47 H     1.0000    0     1.008   20.314556   25.454611   26.739625
  48 H     1.0000    0     1.008   22.298768   24.377467   28.591556
  49 O     8.0000    0    15.999   12.302117   11.772994   14.853247
  50 H     1.0000    0     1.008   13.246980   13.341467   15.287884
  51 H     1.0000    0     1.008   13.643823   10.563569   14.645378
  52 O     8.0000    0    15.999   23.281426   26.834111   10.658055
  53 H     1.0000    0     1.008   22.506638   26.002632    9.297453
  54 H     1.0000    0     1.008   22.827892   25.908145   12.075350
  55 O     8.0000    0    15.999   29.782084   13.643823   21.353905
  56 H     1.0000    0     1.008   30.991509   13.076905   22.752303
  57 H     1.0000    0     1.008   28.175817   14.097357   22.072001
  58 O     8.0000    0    15.999   14.210741   18.405933   10.809233
  59 H     1.0000    0     1.008   12.906829   17.952398    9.656501
  60 H     1.0000    0     1.008   13.624925   17.234302   12.169836
  61 O     8.0000    0    15.999   19.690946   27.571104   16.516206
  62 H     1.0000    0     1.008   18.727186   28.156919   15.117809
  63 H     1.0000    0     1.008   21.108241   28.704940   16.686282
  64 O     8.0000    0    15.999   15.155604   25.227844   13.927282
  65 H     1.0000    0     1.008   15.098912   27.023084   13.568234
  66 H     1.0000    0     1.008   14.626480   24.679823   12.264323
  67 O     8.0000    0    15.999   20.579118   27.854563   24.056214
  68 H     1.0000    0     1.008   20.295659   29.404139   25.038871
  69 H     1.0000    0     1.008   22.072001   28.043536   23.111351
  70 O     8.0000    0    15.999   26.153810   23.867241   16.724076
  71 H     1.0000    0     1.008   24.642029   23.130248   15.968186
  72 H     1.0000    0     1.008   26.380577   25.435714   15.949289
  73 O     8.0000    0    15.999   16.516206    8.163617   23.168042
  74 H     1.0000    0     1.008   16.950843    6.746322   24.320775
  75 H     1.0000    0     1.008   17.744528    7.577802   21.939720
  76 O     8.0000    0    15.999   12.755651   15.439063   23.810549
  77 H     1.0000    0     1.008   11.243870   14.475302   23.886138
  78 H     1.0000    0     1.008   12.132042   17.158713   23.640474
  79 O     8.0000    0    15.999   23.602679    8.995096   22.053104
  80 H     1.0000    0     1.008   23.905036    9.032891   20.276761
  81 H     1.0000    0     1.008   23.602679   10.828131   22.336563
  82 O     8.0000    0    15.999   10.487980   20.106686   22.374357
  83 H     1.0000    0     1.008    9.165172   19.161823   21.542878
  84 H     1.0000    0     1.008   11.168281   21.259419   21.051549
  85 O     8.0000    0    15.999   19.558665   19.256309   29.857673
  86 H     1.0000    0     1.008   21.051549   18.349241   29.309652
  87 H     1.0000    0     1.008   19.709844   20.900371   29.139577
  88 O     8.0000    0    15.999    9.656501   19.728741   15.231193
  89 H     1.0000    0     1.008    9.486425   20.333453   13.530439
  90 H     1.0000    0     1.008   10.034446   21.164933   16.176056
  91 O     8.0000    0    15.999   20.522426   11.621816   26.550652
  92 H     1.0000    0     1.008   19.634255   12.566679   25.246741
  93 H     1.0000    0     1.008   20.541323   12.585576   28.138022
  94 O     8.0000    0    15.999   15.268987   28.742734   19.747638
  95 H     1.0000    0     1.008   15.193398   28.289200   21.429494
  96 H     1.0000    0     1.008   16.799665   28.005741   19.180720
  97 O     8.0000    0    15.999   30.197824   22.544433   26.701830
  98 H     1.0000    0     1.008   31.917474   23.035762   27.023084
  99 H     1.0000    0     1.008   30.613563   20.768090   26.645138
 100 O     8.0000    0    15.999   26.040426   11.905275   28.459276
 101 H     1.0000    0     1.008   24.358570   11.451740   27.835666
 102 H     1.0000    0     1.008   27.136467   12.207631   27.079775
 103 O     8.0000    0    15.999   25.511303   28.194714   21.127138
 104 H     1.0000    0     1.008   26.569549   26.871906   21.845234
 105 H     1.0000    0     1.008   25.964837   29.763187   21.883029
 106 O     8.0000    0    15.999   10.072240   28.761632   20.238967
 107 H     1.0000    0     1.008    9.354144   29.252961   21.750748
 108 H     1.0000    0     1.008   11.791891   29.441933   20.295659
 109 O     8.0000    0    15.999   18.897261   21.505083   10.317905
 110 H     1.0000    0     1.008   17.517761   20.314556   10.469083
 111 H     1.0000    0     1.008   20.031097   20.730296    8.957302
 112 Q     0.6645    0     0.000   11.999761   28.156919    1.492884
 113 Q     0.6645    0     0.000   13.662720   26.701830   -0.264562
 114 Q    -1.3290    0     0.000   13.095802   27.060878    1.096041
 115 Q     0.6645    0     0.000    8.106925   16.383926    1.549575
 116 Q     0.6645    0     0.000    9.146274   13.643823    1.946418
 117 Q    -1.3290    0     0.000    8.636048   15.117809    2.418849
 118 Q     0.6645    0     0.000   31.407248    9.675398   25.435714
 119 Q     0.6645    0     0.000   31.974166   11.810788   27.249851
 120 Q    -1.3290    0     0.000   31.860783   11.187179   25.775864
 121 Q     0.6645    0     0.000   33.504844   28.856118   15.798110
 122 Q     0.6645    0     0.000   35.470160   29.441933   13.813898
 123 Q    -1.3290    0     0.000   34.676475   29.687598   15.212295
 124 Q     0.6645    0     0.000   30.424591   29.215166   23.791652
 125 Q     0.6645    0     0.000   32.314317   31.067098   22.808994
 126 Q    -1.3290    0     0.000   31.822988   29.630906   23.205837
 127 Q     0.6645    0     0.000   37.624447   29.271858   32.881235
 128 Q     0.6645    0     0.000   38.588208   26.966392   34.298529
 129 Q    -1.3290    0     0.000   37.889009   27.722282   33.089105
 130 Q     0.6645    0     0.000   18.859467   28.742734   34.128454
 131 Q     0.6645    0     0.000   17.328789   30.651358   35.678029
 132 Q    -1.3290    0     0.000   18.179165   29.347447   35.451262
 133 Q     0.6645    0     0.000   19.785433    4.421959   11.508432
 134 Q     0.6645    0     0.000   19.445282    6.614041   13.492645
 135 Q    -1.3290    0     0.000   19.180720    5.782562   12.113145
 136 Q     0.6645    0     0.000    5.404617   27.476618   24.018419
 137 Q     0.6645    0     0.000    7.502213   26.853008   26.116015
 138 Q    -1.3290    0     0.000    6.481761   27.741180   25.190049
 139 Q     0.6645    0     0.000   13.908384   33.939481   17.234302
 140 Q     0.6645    0     0.000   12.358809   35.583543   15.420165
 141 Q    -1.3290    0     0.000   13.114699   34.298529   15.911494
 142 Q     0.6645    0     0.000   30.613563   35.148906   19.256309
 143 Q     0.6645    0     0.000   30.462385   36.585098   21.769645
 144 Q    -1.3290    0     0.000   29.971056   35.545749   20.673604
 145 Q     0.6645    0     0.000    2.664514   33.523742   11.395049
 146 Q     0.6645    0     0.000    1.285014   31.142687   12.585576
 147 Q    -1.3290    0     0.000    1.398397   32.559981   11.829686
 148 Q     0.6645    0     0.000   20.843679   21.656261   35.224495
 149 Q     0.6645    0     0.000   19.634255   19.804330   33.599331
 150 Q    -1.3290    0     0.000   20.220070   20.276761   34.959933
 151 Q     0.6645    0     0.000   15.439063    2.456644   26.834111
 152 Q     0.6645    0     0.000   14.021768    1.625164   29.063988
 153 Q    -1.3290    0     0.000   14.569788    1.398397   27.646693
 154 Q     0.6645    0     0.000   22.166488    9.165172    7.672288
 155 Q     0.6645    0     0.000   21.712953    7.917953   10.469083
 156 Q    -1.3290    0     0.000   22.525536    8.787227    9.316350
 157 Q     0.6645    0     0.000    2.985767   13.265877   17.083124
 158 Q     0.6645    0     0.000    2.437747   11.432843   19.275207
 159 Q    -1.3290    0     0.000    2.192082   12.680062   18.273652
 160 Q     0.6645    0     0.000   18.311446   34.752064   33.712714
 161 Q     0.6645    0     0.000   19.105131   36.887454   32.106447
 162 Q    -1.3290    0     0.000   19.010645   35.375673   32.446598
 163 Q     0.6645    0     0.000   26.966392   30.897022   26.021529
 164 Q     0.6645    0     0.000   26.853008   28.119125   27.079775
 165 Q    -1.3290    0     0.000   27.514413   29.460830   26.475063
 166 Q     0.6645    0     0.000   16.724076   15.514652    7.993542
 167 Q     0.6645    0     0.000   19.672049   14.947734    7.653391
 168 Q    -1.3290    0     0.000   18.216960   15.439063    7.237651
 169 Q     0.6645    0     0.000   32.484392   10.658055   18.821672
 170 Q     0.6645    0     0.000   33.561536   10.355699   16.062672
 171 Q    -1.3290    0     0.000   32.465495   10.487980   17.215405
 172 Q     0.6645    0     0.000    5.518000   16.478412   20.201172
 173 Q     0.6645    0     0.000    5.102261   18.500419   22.412152
 174 Q    -1.3290    0     0.000    5.782562   17.177611   21.675159
 175 Q     0.6645    0     0.000   17.102022   30.745844   11.338357
 176 Q     0.6645    0     0.000   14.947734   31.879680   13.246980
 177 Q    -1.3290    0     0.000   15.741419   30.726947   12.283220
 178 Q     0.6645    0     0.000   35.980386   28.081330    9.467528
 179 Q     0.6645    0     0.000   34.695372   25.586892   10.091138
 180 Q    -1.3290    0     0.000   35.016625   27.136467   10.355699
 181 Q     0.6645    0     0.000   27.476618   14.305227   37.095324
 182 Q     0.6645    0     0.000   25.379022   13.303672   35.659132
 183 Q    -1.3290    0     0.000   26.229399   14.475302   36.169358
 184 Q     0.6645    0     0.000    6.614041   25.076666    2.267671
 185 Q     0.6645    0     0.000    7.313240   26.304988   -0.207870
 186 Q    -1.3290    0     0.000    6.821911   26.304988    1.303911
 187 Q     0.6645    0     0.000    5.385719   21.580672    5.820356
 188 Q     0.6645    0     0.000    5.007774   21.996412    3.061356
 189 Q    -1.3290    0     0.000    5.877048   22.053104    4.384165
 190 Q     0.6645    0     0.000   32.219831   26.645138   19.634255
 191 Q     0.6645    0     0.000   32.276522   24.207392   18.046885
 192 Q    -1.3290    0     0.000   32.257625   25.813659   18.292549
 193 Q     0.6645    0     0.000   31.785194   15.287884   31.615118
 194 Q     0.6645    0     0.000   31.841885   12.623371   32.786748
 195 Q    -1.3290    0     0.000   32.068652   13.757206   31.596221
 196 Q     0.6645    0     0.000   24.150700    8.352590   33.750509
 197 Q     0.6645    0     0.000   26.002632    9.864370   32.144242
 198 Q    -1.3290    0     0.000   25.133358    9.562014   33.410358
 199 Q     0.6645    0     0.000   39.665352   24.849899   22.279871
 200 Q     0.6645    0     0.000   40.496831   23.470399   24.604234
 201 Q    -1.3290    0     0.000   39.551968   23.753858   23.394810
 202 Q     0.6645    0     0.000   27.571104   28.515967   35.696927
 203 Q     0.6645    0     0.000   25.208947   29.952159   34.846550
 204 Q    -1.3290    0     0.000   26.116015   28.704940   35.130009
 205 Q     0.6645    0     0.000   15.552446   12.207631   11.036001
 206 Q     0.6645    0     0.000   12.812343   12.944624   10.355699
 207 Q    -1.3290    0     0.000   14.361919   12.642268   10.091138
 208 Q     0.6645    0     0.000   14.135151   27.892358   32.219831
 209 Q     0.6645    0     0.000   11.413946   28.742734   31.747399
 210 Q    -1.3290    0     0.000   12.906829   28.931707   32.163139
 211 Q     0.6645    0     0.000   24.547542   29.857673   18.235857
 212 Q     0.6645    0     0.000   22.997967   32.163139   17.442172
 213 Q    -1.3290    0     0.000   23.867241   30.840331   17.234302
 214 Q     0.6645    0     0.000   10.053343   16.100467    5.782562
[...]
 335   Q   :   -0.139106959   -0.069083491   -0.256607250
 336   Q   :   -0.118703855    0.032848890    0.227221084
 337   Q   :    0.250338870    0.040263326    0.025262702
 338   Q   :    0.246206005   -0.041637037   -0.064136147
 339   Q   :   -0.084819149    0.199493641    0.135647579
 340   Q   :   -0.159684879   -0.159503665   -0.073238887
 341   Q   :    0.145439243   -0.172357693    0.177515231
 342   Q   :    0.105077859    0.225385642   -0.140893240
 343   Q   :   -0.254912316   -0.059880394   -0.037329238
 344   Q   :    0.016212910    0.172573856    0.209317904
 345   Q   :   -0.146206917   -0.216734914   -0.025674723
 346   Q   :    0.123074700    0.047874523   -0.183285409
 347   Q   :   -0.004525656    0.236367688   -0.158736800
 348   Q   :    0.010504452    0.000362072    0.272069009
 349   Q   :   -0.002940244   -0.238125418   -0.117629676
 350   Q   :    0.229345841   -0.134816430    0.109662709
 351   Q   :   -0.275532922   -0.054237820    0.036570299
 352   Q   :    0.048821816    0.188197321   -0.142543421
 353   Q   :    0.172783010   -0.223189842    0.059125337
 354   Q   :    0.070122156    0.256144391   -0.149806118
 355   Q   :   -0.241215187   -0.022184562    0.092854697
 356   Q   :   -0.236734538    0.102653661   -0.041115766
 357   Q   :    0.239713502    0.141255473   -0.061500816
 358   Q   :    0.008505455   -0.234162485    0.105645361
 359   Q   :   -0.142091616    0.044683633    0.242496147
 360   Q   :    0.141722807    0.195731294   -0.185805149
 361   Q   :    0.002539363   -0.245268442   -0.062436429
 362   Q   :    0.029289648   -0.247002014   -0.153273864
 363   Q   :    0.098487052    0.026679392    0.264185679
 364   Q   :   -0.124203129    0.223564341   -0.113165601
 365   Q   :   -0.042777833    0.063576074    0.260816040
 366   Q   :   -0.049594992    0.165665055   -0.216588819
 367   Q   :    0.089012808   -0.225780604   -0.042079257
 368   Q   :    0.143500791   -0.083321400    0.204691178
 369   Q   :    0.075757242    0.165814927   -0.202697799
 370   Q   :   -0.231760059   -0.072923136   -0.015411468
 371   Q   :   -0.137479386   -0.230752667   -0.031551756
 372   Q   :    0.177221678    0.036155266    0.245819384
 373   Q   :   -0.033756655    0.208284977   -0.205114146
 374   Q   :   -0.100885321   -0.282562526   -0.020564952
 375   Q   :   -0.102795292    0.172752629    0.164454567
 376   Q   :    0.204913024    0.104239520   -0.150930965
 377   Q   :    0.020963104    0.252461894   -0.125274674
 378   Q   :    0.082599222   -0.082622948    0.240283233
 379   Q   :   -0.105164976   -0.166935235   -0.108356967
 380   Q   :    0.084893441    0.272640777   -0.110887145
 381   Q   :    0.147976458   -0.186490870    0.096333211
 382   Q   :   -0.238656297   -0.075312133    0.015509863
 383   Q   :    0.141593599    0.236057927   -0.080225881
 384   Q   :    0.061017697   -0.185244098    0.202652181
 385   Q   :   -0.203340889   -0.045773777   -0.127230475
 386   Q   :    0.110229374    0.283987367   -0.031138782
 387   Q   :    0.133432501   -0.201329922    0.084665062
 388   Q   :   -0.246713162   -0.073804498   -0.065350602
 389   Q   :    0.135403832   -0.250464818   -0.030854514
 390   Q   :    0.079122470    0.236915233    0.121183644
 391   Q   :   -0.225096837    0.010633711   -0.086717328
 392   Q   :    0.151448311    0.061640787    0.188142913
 393   Q   :    0.034431721    0.018183690   -0.247986534
 394   Q   :   -0.175559873   -0.080428107    0.061185462
 395   Q   :    0.128126836   -0.231734452   -0.077228319
 396   Q   :    0.084661433    0.160238134    0.245011245
 397   Q   :   -0.208024098    0.072102545   -0.163303037
 398   Q   :   -0.100027645    0.122855454   -0.212434473
 399   Q   :    0.282297131   -0.031245552    0.069287610
 400   Q   :   -0.177033557   -0.085483880    0.144206227
 401   Q   :    0.207413441   -0.083265109   -0.212338044
 402   Q   :   -0.270529320   -0.025287468   -0.021538663
 403   Q   :    0.054547408    0.100938647    0.227055558
 404   Q   :   -0.097397065    0.084341518   -0.277347224
 405   Q   :   -0.155670032   -0.214538083    0.151888308
 406   Q   :    0.243329383    0.128332242    0.122062428
 407   Q   :    0.268468291   -0.114035601   -0.006166518
 408   Q   :   -0.216499851   -0.179015025   -0.167943322
 409   Q   :   -0.056833582    0.299535154    0.173715667
 410   Q   :    0.112158746   -0.026995692    0.288084406
 411   Q   :    0.038636153    0.242865198   -0.143842672
 412   Q   :   -0.146502280   -0.220180625   -0.152509904
 413   Q   :   -0.090818174    0.141524111    0.180980616
 414   Q   :    0.291276478   -0.044398428   -0.016613518
 415   Q   :   -0.190702475   -0.104933153   -0.144259539
 416   Q   :    0.027837263   -0.272719903    0.154279937
 417   Q   :   -0.281411857    0.146224943   -0.043537818
 418   Q   :    0.256134552    0.126392806   -0.107139105
 419   Q   :   -0.015471272   -0.274826984   -0.039945368
 420   Q   :    0.256065751    0.097065874    0.158735247
 421   Q   :   -0.235967756    0.181306608   -0.119744527
 422   Q   :    0.137665562    0.220366878   -0.100858064
 423   Q   :    0.081724033   -0.231548525    0.074592982
 424   Q   :   -0.217980098    0.018496640    0.029656674
 425   Q   :   -0.075386420   -0.249450588    0.034194762
 426   Q   :    0.272711432    0.089194447   -0.018709700
 427   Q   :   -0.197919663    0.153810253   -0.011845744
 428   Q   :   -0.324138233    0.043647041    0.003187273
 429   Q   :    0.118230634   -0.179890184   -0.214635453
 430   Q   :    0.201115496    0.141710503    0.223792894
 431   Q   :   -0.125650146   -0.226184393    0.159548156
 432   Q   :   -0.080546331    0.090000297   -0.280974343
 433   Q   :    0.207786905    0.132367616    0.115146950
 434   Q   :   -0.019672261   -0.296865684   -0.024528953
 435   Q   :    0.245226686    0.147390771    0.141796100
 436   Q   :   -0.223936114    0.149989737   -0.121403747
 437   Q   :    0.035591445   -0.256165453   -0.074007723
 438   Q   :   -0.256015297    0.143300269    0.011498793
 439   Q   :    0.233205403    0.110763764    0.046974022
 440   Q   :    0.249604231    0.062722558    0.041580511
 441   Q   :   -0.107919332   -0.229807176   -0.001553962
 442   Q   :   -0.143579113    0.167389540   -0.051236317
 443   Q   :    0.172884623   -0.194170977    0.027074491
 444   Q   :   -0.274328029   -0.020409813    0.049338022
 445   Q   :    0.102187736    0.215336841   -0.065905484
 446   Q   :   -0.229665943    0.105548036    0.031929016
 447   Q   :    0.093741126   -0.232448688   -0.139393385
 448   Q   :    0.138872432    0.122649345    0.115488844
 449   Q   :    0.157572633    0.116164130   -0.200225921
 450   Q   :    0.070429305    0.030326918    0.269631253
 451   Q   :   -0.224470149   -0.147935300   -0.058790439
 452   Q   :   -0.144733501    0.107868816   -0.163459370
 453   Q   :    0.163586050   -0.233539209   -0.029147723
 454   Q   :   -0.001787364    0.116241074    0.191930057
 455   Q   :    0.255911973   -0.029718147   -0.014401872
 456   Q   :   -0.135528489    0.216101376   -0.019068992
 457   Q   :   -0.120065685   -0.190457772    0.033411525
 458   Q   :   -0.260985892    0.108615405    0.013217358
 459   Q   :    0.219418859    0.106395224   -0.084321099
 460   Q   :    0.030687770   -0.205834944    0.073158427
 461   Q   :   -0.260848450    0.132360548    0.158117430
 462   Q   :    0.283967499    0.145676076    0.011727137
 463   Q   :   -0.029621552   -0.278747798   -0.175780854
 464   Q   :   -0.168583551   -0.187717340   -0.139305575
 465   Q   :    0.276368357    0.080687355   -0.084810089
 466   Q   :   -0.114378903    0.107044405    0.237846316
 467   Q   :   -0.261745437   -0.176762287    0.099731447
 468   Q   :    0.067779064   -0.057422918   -0.327458242
 469   Q   :    0.193684337    0.232241329    0.241160834
 470   Q   :   -0.013623838   -0.089234501   -0.245193825
 471   Q   :   -0.187700354   -0.059749779    0.194042864
 472   Q   :    0.200702089    0.147598442    0.051930265
 473   Q   :   -0.161376978   -0.200449206   -0.075429587
 474   Q   :    0.101727965    0.061117076    0.242428051
 475   Q   :    0.052862652    0.139562062   -0.168270480
 476   Q   :   -0.257651451    0.160419052   -0.108711421
 477   Q   :   -0.001622384   -0.317092007    0.001850952
 478   Q   :    0.257997480    0.156271974    0.109103374
 479   Q   :   -0.043275840    0.165914174    0.242693208
 480   Q   :    0.163667199    0.063140403   -0.210874962
 481   Q   :   -0.115847618   -0.231125219   -0.024335866
 482   Q   :    0.121232007   -0.236826744    0.070066411
 483   Q   :   -0.265243032    0.056653235   -0.017496001
 484   Q   :    0.148872786    0.172274876   -0.049337100
 485   Q   :   -0.011671919    0.226095664    0.215296896
 486   Q   :    0.015594810   -0.273008687    0.045702030
 487   Q   :   -0.003748097    0.054883778   -0.259058152
 488   Q   :    0.106488657    0.205912364    0.068762190
 489   Q   :   -0.169838798   -0.042522733   -0.206151208
 490   Q   :    0.070012858   -0.156973328    0.133336007
 491   Q   :   -0.155721543   -0.239031910    0.053523800
 492   Q   :    0.014871767    0.224758787    0.183783596
 493   Q   :    0.134880772    0.023256065   -0.231504778
 494   Q   :    0.280601284    0.063977617   -0.033251795
 495   Q   :   -0.148003054   -0.158802104   -0.161471206
 496   Q   :   -0.126716579    0.085630194    0.208780608
 497   Q   :   -0.111056632   -0.312384066   -0.014339447
 498   Q   :    0.038135231    0.094996395    0.275760426
 499   Q   :    0.074762971    0.205057059   -0.265409119
 500   Q   :   -0.062609708   -0.276664983    0.115947403
 501   Q   :    0.189643478    0.204909877    0.091451436
 502   Q   :   -0.118405384    0.067098491   -0.206787655
 503   Q   :    0.241767353   -0.138338628   -0.020228692
 504   Q   :   -0.115063681    0.121314546   -0.181235447
 505   Q   :   -0.130086806    0.015424437    0.195455901
 506   Q   :    0.301580075    0.073719584    0.031602599
 507   Q   :   -0.088071694   -0.166018854   -0.281459689
 508   Q   :   -0.214725411    0.086068360    0.252225302
 509   Q   :    0.074947703   -0.142941228    0.278171752
 510   Q   :    0.188305804    0.135602838   -0.148367819
 511   Q   :   -0.271698559   -0.000410012   -0.130149752
 512   Q   :   -0.205007280   -0.018304306    0.098103728
 513   Q   :    0.127068939   -0.166860511   -0.146123613
 514   Q   :    0.088733497    0.183544792    0.050054161
 515   Q   :    0.240846066    0.017739301   -0.115435322
 516   Q   :   -0.151975838   -0.187857531    0.088634523
 517   Q   :   -0.087896239    0.163687308    0.028276617
 518   Q   :   -0.130048827   -0.093995785   -0.188913552
 519   Q   :    0.263362742    0.028586484    0.056956008
 520   Q   :   -0.129297414    0.066418433    0.121678210
 521   Q   :    0.109777337    0.226627375   -0.090321069
 522   Q   :   -0.281646112   -0.051629502   -0.023613697
 523   Q   :    0.171829698   -0.171901212    0.109326729
 524   Q   :    0.005435130   -0.255800515   -0.016118752
 525   Q   :    0.142968242    0.145415596    0.263177990
 526   Q   :   -0.140652551    0.123987997   -0.263227439
 527   Q   :    0.064074535   -0.271171734    0.086310596
 528   Q   :   -0.204570094    0.036389526   -0.175545060
 529   Q   :    0.145520520    0.219032379    0.081866558
 530   Q   :   -0.015041942   -0.241614220   -0.104428366
 531   Q   :    0.217447562    0.197059558   -0.046028863
 532   Q   :   -0.204567954    0.046057929    0.144623506
 533   Q   :   -0.230120037   -0.041730760   -0.147831931
 534   Q   :    0.262776926    0.005982360   -0.096151239
 535   Q   :   -0.029926932    0.031292469    0.250320801
 536   Q   :    0.172961865    0.219544827   -0.138649245
 537   Q   :    0.076780191   -0.120661784    0.250447711
 538   Q   :   -0.239457042   -0.100610996   -0.118430374
 539   Q   :    0.168615964    0.042490022   -0.193949354
 540   Q   :   -0.102290435    0.170039503    0.176390524
 541   Q   :   -0.066825492   -0.207502645    0.010127726
 542   Q   :   -0.170800385    0.240891360   -0.032758148
 543   Q   :    0.053631969   -0.205862290   -0.191574150
 544   Q   :    0.108209317   -0.045487805    0.235019429
 545   Q   :   -0.184632879   -0.163305315   -0.068796589
 546   Q   :    0.132668855    0.043614033    0.212923928
 547   Q   :    0.047580339    0.132071590   -0.143967983
 548   Q   :    0.054687854    0.265385534    0.177767893
 549   Q   :    0.082514872   -0.267689122    0.106822588
 550   Q   :   -0.129463840   -0.005116251   -0.284668931
 551   Q   :    0.289136203    0.065021637   -0.037240956
 552   Q   :   -0.156910770   -0.010814183    0.270956624
 553   Q   :   -0.136506153   -0.050584006   -0.237226947
 554   Q   :    0.255211270   -0.105618985   -0.086352990
 555   Q   :   -0.078966503    0.258815231   -0.006284479
 556   Q   :   -0.158515174   -0.155460333    0.094518240
 557   Q   :   -0.063816714    0.051494366   -0.282639231
 558   Q   :    0.259407268    0.010145576    0.129379178
 559   Q   :   -0.187509540   -0.060484322    0.153744671
 560   Q   :    0.163327452   -0.113728264    0.166477726
 561   Q   :   -0.206984484   -0.139191611   -0.165908376
 562   Q   :    0.026990214    0.249255433    0.001227854
 563   Q   :    0.253112349    0.048365788    0.137077178
 564   Q   :   -0.014471925   -0.035282690   -0.278096543
 565   Q   :   -0.230398381   -0.004078713    0.148114421
 566   Q   :   -0.083409360    0.261923989    0.064841741
 567   Q   :    0.210511387   -0.070609101   -0.127833003
 568   Q   :   -0.136221618   -0.192014448    0.066488707
 569   Q   :    0.023330254    0.159262730   -0.269088572
 570   Q   :    0.078044192    0.115933059    0.236794771
 571   Q   :   -0.104178261   -0.287378521    0.026519146
 572   Q   :    0.316378078   -0.033261316    0.025956001
 573   Q   :   -0.160109482   -0.103986824   -0.213142966
 574   Q   :   -0.160711496    0.135785801    0.186016559
 575   Q   :   -0.074281391   -0.033537326    0.262909372
 576   Q   :    0.064190272   -0.164712782   -0.196101480
 577   Q   :    0.009547128    0.200757843   -0.057841097
 578   Q   :    0.097896199    0.259287877    0.045929560
 579   Q   :    0.077880164   -0.246121246    0.140113682
 580   Q   :   -0.179113169   -0.014277335   -0.177049640
 581   Q   :    0.209300185    0.153443314   -0.063295012
 582   Q   :   -0.022717534   -0.265251027   -0.104031120
 583   Q   :   -0.192063943    0.107475503    0.178539578
 584   Q   :    0.113423038    0.226206766   -0.052774650
 585   Q   :    0.056489764   -0.289853514   -0.148241113
 586   Q   :   -0.166662872    0.056517720    0.201324711
 587   Q   :   -0.184058692   -0.110742328   -0.096201879
 588   Q   :    0.169468111    0.233927220   -0.098261992
 589   Q   :    0.025292229   -0.109835356    0.192868349
 590   Q   :    0.184248447   -0.218049498   -0.112429104
 591   Q   :    0.015817462    0.083240481    0.260088923
 592   Q   :   -0.193513875    0.132810320   -0.157710631
 593   Q   :    0.266341518    0.036663396   -0.021642921
 594   Q   :   -0.171618928   -0.241029499   -0.073017407
 595   Q   :   -0.098495904    0.206591432    0.098428735
 596   Q   :    0.025399501    0.288237275   -0.037608816
 597   Q   :   -0.148413686   -0.184462600   -0.139518654
 598   Q   :    0.125040427   -0.099127530    0.177619177
 599   Q   :   -0.254649301    0.078330139    0.054375149
 600   Q   :    0.080337533   -0.038627690   -0.276073601
 601   Q   :    0.172941447   -0.058475530    0.234698314
 602   Q   :   -0.214899549    0.191867679    0.081274980
 603   Q   :    0.279576802    0.099570788   -0.082305563
 604   Q   :   -0.062831874   -0.292956394    0.000041104
 605   Q   :    0.077500290    0.147668170    0.233399325
 606   Q   :   -0.202537346    0.040997585   -0.145829918
 607   Q   :    0.132078282   -0.190380289   -0.083816044
 608   Q   :   -0.192465321   -0.191575595   -0.032251902
 609   Q   :    0.049416552    0.254956556   -0.160889770
 610   Q   :    0.142205836   -0.059860258    0.186712544
 611   Q   :    0.239899834    0.031869849   -0.148939653
 612   Q   :   -0.265921116   -0.003672471   -0.132963864
 613   Q   :    0.018441906   -0.027277986    0.283097943
 614   Q   :   -0.121793083   -0.182378357    0.134162517
 615   Q   :    0.225418632    0.057451072   -0.049165447
 616   Q   :   -0.106470186    0.142328834   -0.083540991
 617   Q   :    0.192714567   -0.203011351   -0.107474655
 618   Q   :   -0.283644649   -0.004046743   -0.129833036
 619   Q   :    0.078471090    0.196935264    0.228543770
 620   Q   :    0.020464865   -0.019080040   -0.316824574
 621   Q   :    0.216335672    0.104605718    0.136060295
 622   Q   :   -0.240633213   -0.078774422    0.174390302
 623   Q   :    0.222575577   -0.140073995    0.043000672
 624   Q   :   -0.227449444   -0.094957138   -0.129762406
 625   Q   :    0.014364795    0.243988281    0.076850833

Difference to translation invariance:
           :   -0.0001074705   -0.0005509487    0.0004433919

Difference to rotation invariance:
           :    0.0166994450   -0.0077723214   -0.0040952698

Norm of the cartesian gradient     ...    6.3353345381
RMS gradient                       ...    0.1463082840
MAX gradient                       ...    0.3274582424

-------
TIMINGS
-------

Total SCF gradient time            ...      237.520 sec

One electron gradient       ....      29.731 sec  ( 12.5%)
RI-J Coulomb gradient       ....      12.785 sec  (  5.4%)
COSX gradient               ....     148.909 sec  ( 62.7%)
XC gradient                 ....      19.021 sec  (  8.0%)

Maximum memory used throughout the entire SCFGRAD-calculation: 897.3 MB

                            ***************************************
                            *     ORCA property calculations      *
                            ***************************************

                                    ---------------------
                                    Active property flags
                                    ---------------------
   (+) Dipole Moment


------------------------------------------------------------------------------
                       ORCA ELECTRIC PROPERTIES CALCULATION
------------------------------------------------------------------------------

Dipole Moment Calculation                       ... on
Quadrupole Moment Calculation                   ... off
Polarizability Calculation                      ... off
GBWName                                         ... final060.orca.gbw
Electron density                                ... final060.orca.scfp
The origin for moment calculation is the CENTER OF MASS  = (19.144047, 19.861946 20.126350)

-------------
DIPOLE MOMENT
-------------
                                X             Y             Z
Electronic contribution:     -0.42628       0.32618      -0.92748
Nuclear contribution   :     17.35462      -1.66823      -2.20786
                        -----------------------------------------
Total Dipole Moment    :     16.92833      -1.34205      -3.13534
                        -----------------------------------------
Magnitude (a.u.)       :     17.26847
Magnitude (Debye)      :     43.89296



--------------------
Rotational spectrum 
--------------------
 
Rotational constants in cm-1:     0.001873     0.001427     0.001185 
Rotational constants in MHz :    56.152804    42.782994    35.511223 

 Dipole components along the rotational axes: 
x,y,z [a.u.] :   -10.539008     8.223572   -10.931704 
x,y,z [Debye]:   -26.788028    20.902659   -27.786183 

 

Timings for individual modules:

Sum of individual times         ...     1055.567 sec (=  17.593 min)
GTO integral calculation        ...       14.517 sec (=   0.242 min)   1.4 %
SCF iterations                  ...      798.985 sec (=  13.316 min)  75.7 %
SCF Gradient evaluation         ...      242.065 sec (=   4.034 min)  22.9 %
                             ****ORCA TERMINATED NORMALLY****
TOTAL RUN TIME: 0 days 0 hours 17 minutes 43 seconds 782 msec
