
                                 *****************
                                 * O   R   C   A *
                                 *****************

                                            #,                                       
                                            ###                                      
                                            ####                                     
                                            #####                                    
                                            ######                                   
                                           ########,                                 
                                     ,,################,,,,,                         
                               ,,#################################,,                 
                          ,,##########################################,,             
                       ,#########################################, ''#####,          
                    ,#############################################,,   '####,        
                  ,##################################################,,,,####,       
                ,###########''''           ''''###############################       
              ,#####''   ,,,,##########,,,,          '''####'''          '####       
            ,##' ,,,,###########################,,,                        '##       
           ' ,,###''''                  '''############,,,                           
         ,,##''                                '''############,,,,        ,,,,,,###''
      ,#''                                            '''#######################'''  
     '                                                          ''''####''''         
             ,#######,   #######,   ,#######,      ##                                
            ,#'     '#,  ##    ##  ,#'     '#,    #''#        ######   ,####,        
            ##       ##  ##   ,#'  ##            #'  '#       #        #'  '#        
            ##       ##  #######   ##           ,######,      #####,   #    #        
            '#,     ,#'  ##    ##  '#,     ,#' ,#      #,         ##   #,  ,#        
             '#######'   ##     ##  '#######'  #'      '#     #####' # '####'        



                  #######################################################
                  #                        -***-                        #
                  #          Department of theory and spectroscopy      #
                  #    Directorship and core code : Frank Neese         #
                  #        Max Planck Institute fuer Kohlenforschung    #
                  #                Kaiser Wilhelm Platz 1               #
                  #                 D-45470 Muelheim/Ruhr               #
                  #                      Germany                        #
                  #                                                     #
                  #                  All rights reserved                #
                  #                        -***-                        #
                  #######################################################


                         Program Version 5.0.3 -  RELEASE  -


 With contributions from (in alphabetic order):
   Daniel Aravena         : Magnetic Suceptibility
   Michael Atanasov       : Ab Initio Ligand Field Theory (pilot matlab implementation)
   Alexander A. Auer      : GIAO ZORA, VPT2 properties, NMR spectrum
   Ute Becker             : Parallelization
   Giovanni Bistoni       : ED, misc. LED, open-shell LED, HFLD
   Martin Brehm           : Molecular dynamics
   Dmytro Bykov           : SCF Hessian
   Vijay G. Chilkuri      : MRCI spin determinant printing, contributions to CSF-ICE
   Dipayan Datta          : RHF DLPNO-CCSD density
   Achintya Kumar Dutta   : EOM-CC, STEOM-CC
   Dmitry Ganyushin       : Spin-Orbit,Spin-Spin,Magnetic field MRCI
   Miquel Garcia          : C-PCM and meta-GGA Hessian, CC/C-PCM, Gaussian charge scheme
   Yang Guo               : DLPNO-NEVPT2, F12-NEVPT2, CIM, IAO-localization
   Andreas Hansen         : Spin unrestricted coupled pair/coupled cluster methods
   Benjamin Helmich-Paris : MC-RPA, TRAH-SCF, COSX integrals
   Lee Huntington         : MR-EOM, pCC
   Robert Izsak           : Overlap fitted RIJCOSX, COSX-SCS-MP3, EOM
   Marcus Kettner         : VPT2
   Christian Kollmar      : KDIIS, OOCD, Brueckner-CCSD(T), CCSD density, CASPT2, CASPT2-K
   Simone Kossmann        : Meta GGA functionals, TD-DFT gradient, OOMP2, MP2 Hessian
   Martin Krupicka        : Initial AUTO-CI
   Lucas Lang             : DCDCAS
   Marvin Lechner         : AUTO-CI (C++ implementation), FIC-MRCC
   Dagmar Lenk            : GEPOL surface, SMD
   Dimitrios Liakos       : Extrapolation schemes; Compound Job, initial MDCI parallelization
   Dimitrios Manganas     : Further ROCIS development; embedding schemes
   Dimitrios Pantazis     : SARC Basis sets
   Anastasios Papadopoulos: AUTO-CI, single reference methods and gradients
   Taras Petrenko         : DFT Hessian,TD-DFT gradient, ASA, ECA, R-Raman, ABS, FL, XAS/XES, NRVS
   Peter Pinski           : DLPNO-MP2, DLPNO-MP2 Gradient
   Christoph Reimann      : Effective Core Potentials
   Marius Retegan         : Local ZFS, SOC
   Christoph Riplinger    : Optimizer, TS searches, QM/MM, DLPNO-CCSD(T), (RO)-DLPNO pert. Triples
   Tobias Risthaus        : Range-separated hybrids, TD-DFT gradient, RPA, STAB
   Michael Roemelt        : Original ROCIS implementation
   Masaaki Saitow         : Open-shell DLPNO-CCSD energy and density
   Barbara Sandhoefer     : DKH picture change effects
   Avijit Sen             : IP-ROCIS
   Kantharuban Sivalingam : CASSCF convergence, NEVPT2, FIC-MRCI
   Bernardo de Souza      : ESD, SOC TD-DFT
   Georgi Stoychev        : AutoAux, RI-MP2 NMR, DLPNO-MP2 response
   Willem Van den Heuvel  : Paramagnetic NMR
   Boris Wezisla          : Elementary symmetry handling
   Frank Wennmohs         : Technical directorship


 We gratefully acknowledge several colleagues who have allowed us to
 interface, adapt or use parts of their codes:
   Stefan Grimme, W. Hujo, H. Kruse, P. Pracht,  : VdW corrections, initial TS optimization,
                  C. Bannwarth, S. Ehlert          DFT functionals, gCP, sTDA/sTD-DF
   Ed Valeev, F. Pavosevic, A. Kumar             : LibInt (2-el integral package), F12 methods
   Garnet Chan, S. Sharma, J. Yang, R. Olivares  : DMRG
   Ulf Ekstrom                                   : XCFun DFT Library
   Mihaly Kallay                                 : mrcc  (arbitrary order and MRCC methods)
   Jiri Pittner, Ondrej Demel                    : Mk-CCSD
   Frank Weinhold                                : gennbo (NPA and NBO analysis)
   Christopher J. Cramer and Donald G. Truhlar   : smd solvation model
   Lars Goerigk                                  : TD-DFT with DH, B97 family of functionals
   V. Asgeirsson, H. Jonsson                     : NEB implementation
   FAccTs GmbH                                   : IRC, NEB, NEB-TS, DLPNO-Multilevel, CI-OPT
                                                   MM, QMMM, 2- and 3-layer-ONIOM, Crystal-QMMM,
                                                   LR-CPCM, SF, NACMEs, symmetry and pop. for TD-DFT,
                                                   nearIR, NL-DFT gradient (VV10), updates on ESD,
                                                   ML-optimized integration grids
   S Lehtola, MJT Oliveira, MAL Marques          : LibXC Library
   Liviu Ungur et al                             : ANISO software


 Your calculation uses the libint2 library for the computation of 2-el integrals
 For citations please refer to: http://libint.valeyev.net

 Your ORCA version has been built with support for libXC version: 5.1.0
 For citations please refer to: https://tddft.org/programs/libxc/

 This ORCA versions uses:
   CBLAS   interface :  Fast vector & matrix operations
   LAPACKE interface :  Fast linear algebra routines
   SCALAPACK package :  Parallel linear algebra routines
   Shared memory     :  Shared parallel matrices
   BLAS/LAPACK       :  OpenBLAS 0.3.15  USE64BITINT DYNAMIC_ARCH NO_AFFINITY SkylakeX SINGLE_THREADED
        Core in use  :  SkylakeX
   Copyright (c) 2011-2014, The OpenBLAS Project


================================================================================

----- Orbital basis set information -----
Your calculation utilizes the basis: def2-SVP
   F. Weigend and R. Ahlrichs, Phys. Chem. Chem. Phys. 7, 3297 (2005).

The basis set includes element-specific modifications.

Your calculation utilizes the basis: aug-cc-pVTZ 
    H, B-Ne : Obtained from the ccRepo (grant-hill.group.shef.ac.uk/ccrepo) Feb. 2017
              R. A. Kendall, T. H. Dunning, Jr., R. J. Harrison, J. Chem. Phys. 96, 6796 (1992)
         He : Obtained from the ccRepo (grant-hill.group.shef.ac.uk/ccrepo) Feb. 2017
              D. E. Woon, T. H. Dunning, Jr., J. Chem. Phys. 100, 2975 (1994)
  Li-Be, Na : Obtained from the ccRepo (grant-hill.group.shef.ac.uk/ccrepo) Feb. 2017
              B. P. Prascher, D. E. Woon, K. A. Peterson, T. H. Dunning, Jr., A. K. Wilson, Theor. Chem. Acc. 128, 69 (2011)
         Mg : Obtained from the Peterson Research Group Website (tyr0.chem.wsu.edu/~kipeters) Feb. 2017
              B. P. Prascher, D. E. Woon, K. A. Peterson, T. H. Dunning, Jr., A. K. Wilson, Theor. Chem. Acc. 128, 69 (2011)
      Al-Ar : Obtained from the ccRepo (grant-hill.group.shef.ac.uk/ccrepo) Feb. 2017
              D. E. Woon, T. H. Dunning, Jr., J. Chem. Phys. 98, 1358 (1993)
      Sc-Zn : Obtained from the ccRepo (grant-hill.group.shef.ac.uk/ccrepo) Feb. 2017
              N. B. Balabanov, K. A. Peterson, J. Chem. Phys. 123, 064107 (2005)
              N. B. Balabanov, K. A. Peterson, J. Chem. Phys. 125, 074110 (2006)
      Ga-Kr : Obtained from the ccRepo (grant-hill.group.shef.ac.uk/ccrepo) Feb. 2017
              A. K. Wilson, D. E. Woon, K. A. Peterson, T. H. Dunning, Jr., J. Chem. Phys. 110, 7667 (1999)
     Ag, Au : Obtained from the Peterson Research Group Website (tyr0.chem.wsu.edu/~kipeters) Feb. 2017
              K. A. Peterson, C. Puzzarini, Theor. Chem. Acc. 114, 283 (2005)

Your calculation utilizes the basis: cc-pVTZ 
       H, B-Ne : Obtained from the ccRepo (grant-hill.group.shef.ac.uk/ccrepo) Feb. 2017
                 T. H. Dunning, Jr., J. Chem. Phys. 90, 1007 (1989)
            He : Obtained from the ccRepo (grant-hill.group.shef.ac.uk/ccrepo) Feb. 2017
                 D. E. Woon, T. H. Dunning, Jr., J. Chem. Phys. 100, 2975 (1994)
  Li-Be, Na-Mg : Obtained from the ccRepo (grant-hill.group.shef.ac.uk/ccrepo) Feb. 2017
                 B. P. Prascher, D. E. Woon, K. A. Peterson, T. H. Dunning, Jr., A. K. Wilson, Theor. Chem. Acc. 128, 69 (2011)
         Al-Ar : Obtained from the ccRepo (grant-hill.group.shef.ac.uk/ccrepo) Feb. 2017
                 D. E. Woon, T. H. Dunning, Jr., J. Chem. Phys. 98, 1358 (1993)
            Ca : Obtained from the Peterson Research Group Website (tyr0.chem.wsu.edu/~kipeters) Feb. 2017
                 J. Koput, K. A. Peterson, J. Phys. Chem. 106, 9595 (2002)
         Sc-Zn : Obtained from the ccRepo (grant-hill.group.shef.ac.uk/ccrepo) Feb. 2017
                 N. B. Balabanov, K. A. Peterson, J. Chem. Phys. 123, 064107 (2005)
                 N. B. Balabanov, K. A. Peterson, J. Chem. Phys. 125, 074110 (2006)
         Ga-Kr : Obtained from the ccRepo (grant-hill.group.shef.ac.uk/ccrepo) Feb. 2017
                 A. K. Wilson, D. E. Woon, K. A. Peterson, T. H. Dunning, Jr., J. Chem. Phys. 110, 7667 (1999)
             Y : Obtained from the ccRepo (grant-hill.group.shef.ac.uk/ccrepo) Feb. 2017
                 K. A. Peterson, D. Figgen, M. Dolg, H. Stoll, J. Chem. Phys. 126, 124101 (2007)
        Ag, Au : Obtained from the Peterson Research Group Website (tyr0.chem.wsu.edu/~kipeters) Feb. 2017
                 K. A. Peterson, C. Puzzarini, Theor. Chem. Acc. 114, 283 (2005)

----- AuxJ basis set information -----
Your calculation utilizes the auxiliary basis: def2/J
   F. Weigend, Phys. Chem. Chem. Phys. 8, 1057 (2006).

================================================================================
                                        WARNINGS
                       Please study these warnings very carefully!
================================================================================

WARNING: The globally-selected AuxJ basis set is optimized for use with ECPs
         Make sure a suitable alternative is explicitly given all heavy elements (Z>36)

INFO   : the flag for use of the SHARK integral package has been found!

================================================================================
                                       INPUT FILE
================================================================================
NAME = final094.orca.inp
|  1> ! NoMOPrint PrintBasis #MINIPRINT SMALLPRINT LARGEPRINT
|  2> ! ALLPOP XYZFILE
|  3> #! BP86 3-21G   TightSCF
|  4> ! ENGRAD
|  5> ! B3LYP NormalPNO PModel #DecontractAux
|  6> #! VerySlowConv 
|  7>  %maxcore 5000
|  8>  %scf  maxiter   500  end 
|  9> 
| 10> %pal
| 11>     nprocs 32
| 12> end
| 13> 
| 14> %basis
| 15>     NewGTO O    # New basis for oxygen
| 16>         "aug-cc-pVTZ"
| 17>     end
| 18>     NewGTO C    # New basis for carbon
| 19>         "aug-cc-pVTZ"
| 20>     end
| 21>     NewGTO H    # New basis for hydrogen
| 22>         "cc-pVTZ"
| 23>     end
| 24> end
| 25> 
| 26> * xyz 0   1
| 27>   C  11.88  11.68  11.44  #1
| 28>   H  12.12  12.29  10.59  #2
| 29>   H  12  10.53  11.2  #3
| 30>   C  10.44  11.9  11.85  #4
| 31>   H  10.19  11.03  12.47  #5
| 32>   H  10.26  12.75  12.5  #6
| 33>   C  9.47  11.89  10.64  #7
| 34>   H  9.85  12.49  9.8  #8
| 35>   H  8.63  12.5  10.9  #9
| 36>   C  8.92  10.55  10.2  #10
| 37>   H  8.07  10.58  9.48  #11
| 38>   H  8.42  10.02  11.04  #12
| 39>   O  9.99  9.79  9.56  #13
| 40>   H  9.48  8.97  9.16  #14
| 41>   O  12.69  12.06  12.56  #15
| 42>   H  13.65  12.03  12.29  #16
| 43>   O  12.75  10.03  8.93  #17
| 44>   H  11.85  9.75  9.21  #18
| 45>   H  13.4  9.63  9.56  #19
| 46>   O  7.24  10.54  13.97  #20
| 47>   H  7.77  9.82  13.65  #21
| 48>   H  6.55  10.88  13.34  #22
| 49>   O  13.37  13.64  8.53  #23
| 50>   H  13.85  14.05  7.77  #24
| 51>   H  12.63  13.14  8.17  #25
| 52>   O  8.65  7.96  7.95  #26
| 53>   H  8.05  8.53  7.48  #27
| 54>   H  8.28  7.4  8.67  #28
| 55>   O  8.52  12.81  14.85  #29
| 56>   H  8.01  11.96  14.63  #30
| 57>   H  8.18  13.45  14.21  #31
| 58>   O  8.49  12.86  17.67  #32
| 59>   H  8.37  12.88  16.75  #33
| 60>   H  9.33  13.26  17.84  #34
| 61>   O  5.93  8.48  11.09  #35
| 62>   H  5.34  9.24  11  #36
| 63>   H  5.86  8.12  11.97  #37
| 64>   O  12.66  15.19  10.6  #38
| 65>   H  13.01  14.68  9.88  #39
| 66>   H  11.76  15.23  10.31  #40
| 67>   O  15.18  14.23  6.48  #41
| 68>   H  14.56  13.7  5.96  #42
| 69>   H  15.38  15.05  5.97  #43
| 70>   O  6.19  6.56  9.1  #44
| 71>   H  6.15  6.86  8.2  #45
| 72>   H  5.91  7.3  9.74  #46
| 73>   O  7.17  10.07  6.14  #47
| 74>   H  7.33  9.67  5.29  #48
| 75>   H  7.82  10.81  6.21  #49
| 76>   O  10.78  7.19  6.29  #50
| 77>   H  10.1  7.67  6.79  #51
| 78>   H  11.47  7.09  6.91  #52
| 79>   O  9.35  9.95  16.35  #53
| 80>   H  9.35  10.44  17.16  #54
| 81>   H  8.42  9.67  16.16  #55
| 82>   O  11.73  7.3  10.51  #56
| 83>   H  10.98  7.75  10.84  #57
| 84>   H  12.43  7.6  11.08  #58
| 85>   O  15.39  9.46  10.57  #59
| 86>   H  15.81  10.13  11.15  #60
| 87>   H  15.14  8.69  11.12  #61
| 88>   O  15.76  14.43  9.79  #62
| 89>   H  15.65  14.55  10.72  #63
| 90>   H  15.2  13.65  9.63  #64
| 91>   O  5.72  12.77  8  #65
| 92>   H  4.81  13.02  7.68  #66
| 93>   H  5.78  11.82  8.2  #67
| 94>   O  9.16  14.62  7.82  #68
| 95>   H  9.04  15.49  7.4  #69
| 96>   H  9.54  13.97  7.19  #70
| 97>   O  8.36  14.79  12.53  #71
| 98>   H  7.62  14.61  11.94  #72
| 99>   H  8.33  15.67  12.91  #73
|100>   O  15.39  11.75  12.38  #74
|101>   H  15.19  11.67  13.35  #75
|102>   H  15.51  12.74  12.27  #76
|103>   O  10.01  15.45  10.15  #77
|104>   H  9.49  15.04  10.91  #78
|105>   H  9.86  14.89  9.38  #79
|106>   O  9.06  8.47  12.85  #80
|107>   H  8.72  7.91  12.13  #81
|108>   H  9.66  7.87  13.34  #82
|109>   O  11.6  11.89  7.26  #83
|110>   H  12.06  12.09  6.44  #84
|111>   H  11.97  11.07  7.65  #85
|112>   O  8.55  6.22  10.97  #86
|113>   H  7.67  6.14  10.54  #87
|114>   H  9.06  5.63  10.43  #88
|115>   O  12.62  8.76  13.12  #89
|116>   H  11.72  8.63  13.48  #90
|117>   H  12.79  9.66  12.93  #91
|118>   O  12.64  16.78  7.47  #92
|119>   H  13.48  17  7.86  #93
|120>   H  12.31  15.97  7.81  #94
|121>   O  6.31  13.89  10.91  #95
|122>   H  5.92  13.11  11.43  #96
|123>   H  6.25  13.67  9.97  #97
|124>   O  11.33  12.31  14.96  #98
|125>   H  11.66  12.17  14.05  #99
|126>   H  10.42  12.31  14.88  #100
|127>   O  5.18  11.69  12.37  #101
|128>   H  4.61  12.06  13.07  #102
|129>   H  4.6  11.32  11.66  #103
|130>   O  15.79  11.43  8.24  #104
|131>   H  14.94  11.79  7.96  #105
|132>   H  15.51  10.63  8.61  #106
|133>   O  5.3  9.62  8.13  #107
|134>   H  4.54  9.16  7.78  #108
|135>   H  5.97  9.78  7.45  #109
|136>   Q  0.6645  18.86$  8.48$  12.2$
|137>   Q  0.6645  17.54$  7.72$  12.78$
|138>   Q  -1.3290  18.33$  7.8$  12.43$
|139>   Q  0.6645  8.18$  3.11$  8.31$
|140>   Q  0.6645  6.94$  2.85$  9.04$
|141>   Q  -1.3290  7.65$  2.64$  8.68$
|142>   Q  0.6645  19.71$  10.45$  4.11$
|143>   Q  0.6645  18.9$  11.07$  5.22$
|144>   Q  -1.3290  19.57$  10.98$  4.73$
|145>   Q  0.6645  7.89$  6.01$  18.76$
|146>   Q  0.6645  8.43$  4.6$  18.81$
|147>   Q  -1.3290  8.21$  5.33$  18.43$
|148>   Q  0.6645  21.19$  6.48$  7.23$
|149>   Q  0.6645  22.27$  7.12$  8.07$
|150>   Q  -1.3290  21.47$  6.92$  7.87$
|151>   Q  0.6645  11.9$  5.33$  18.97$
|152>   Q  0.6645  10.49$  5.6$  18.56$
|153>   Q  -1.3290  11.09$  5.16$  18.92$
|154>   Q  0.6645  14.26$  8.41$  5.54$
|155>   Q  0.6645  13.08$  8.9$  6.36$
|156>   Q  -1.3290  13.7$  8.97$  5.82$
|157>   Q  0.6645  9.19$  16.76$  5.51$
|158>   Q  0.6645  9.6$  17.96$  6.36$
|159>   Q  -1.3290  9.12$  17.25$  6.18$
|160>   Q  0.6645  5.09$  4.75$  9.17$
|161>   Q  0.6645  4.49$  3.34$  8.83$
|162>   Q  -1.3290  5.11$  3.93$  9.03$
|163>   Q  0.6645  20.66$  16.2$  14.02$
|164>   Q  0.6645  22.07$  16.82$  13.9$
|165>   Q  -1.3290  21.28$  16.73$  14.18$
|166>   Q  0.6645  18.05$  6.69$  16.91$
|167>   Q  0.6645  18.41$  7.79$  18.03$
|168>   Q  -1.3290  17.97$  7.12$  17.68$
|169>   Q  0.6645  8.78$  6.55$  3.73$
|170>   Q  0.6645  7.23$  6.44$  3.85$
|171>   Q  -1.3290  8.01$  6.69$  4.07$
|172>   Q  0.6645  17.24$  13.86$  7.38$
|173>   Q  0.6645  18.68$  13.86$  7.93$
|174>   Q  -1.3290  18.05$  14.14$  7.47$
|175>   Q  0.6645  7.35$  9.73$  2.98$
|176>   Q  0.6645  7.25$  8.41$  3.59$
|177>   Q  -1.3290  6.95$  9.13$  3.4$
|178>   Q  0.6645  6.53$  18.04$  17.43$
|179>   Q  0.6645  7.3$  18.64$  16.31$
|180>   Q  -1.3290  6.82$  18.1$  16.66$
|181>   Q  0.6645  18.27$  14.9$  16.14$
|182>   Q  0.6645  17.78$  13.37$  15.82$
|183>   Q  -1.3290  18.18$  14.14$  15.69$
|184>   Q  0.6645  13.67$  18.98$  14.45$
|185>   Q  0.6645  12.77$  18.58$  15.67$
|186>   Q  -1.3290  13.46$  18.96$  15.27$
|187>   Q  0.6645  13.2$  8.33$  15.14$
|188>   Q  0.6645  13.69$  7.62$  16.52$
|189>   Q  -1.3290  13.44$  8.25$  16$
|190>   Q  0.6645  3.69$  8.48$  2.88$
|191>   Q  0.6645  5.14$  8.42$  3.28$
|192>   Q  -1.3290  4.37$  8.11$  3.18$
|193>   Q  0.6645  6.65$  7.01$  14.44$
|194>   Q  0.6645  5.38$  6.68$  13.6$
|195>   Q  -1.3290  6.14$  7.03$  13.78$
|196>   Q  0.6645  2.24$  17.13$  11.22$
|197>   Q  0.6645  1.73$  16.75$  9.86$
|198>   Q  -1.3290  2.25$  16.72$  10.5$
|199>   Q  0.6645  8.65$  17.19$  19.69$
|200>   Q  0.6645  8.3$  16.51$  21.11$
|201>   Q  -1.3290  8.26$  17.1$  20.47$
|202>   Q  0.6645  19.25$  14.95$  6.34$
|203>   Q  0.6645  20.47$  15.4$  5.41$
|204>   Q  -1.3290  19.74$  15.46$  5.84$
|205>   Q  0.6645  4.43$  10.35$  9.5$
|206>   Q  0.6645  3.27$  11.18$  10.07$
|207>   Q  -1.3290  3.85$  10.6$  10.08$
|208>   Q  0.6645  12.92$  13.07$  1.89$
|209>   Q  0.6645  11.61$  13.53$  1.04$
|210>   Q  -1.3290  12.2$  13.52$  1.68$
|211>   Q  0.6645  15.57$  15.75$  2.86$
|212>   Q  0.6645  15.47$  14.22$  3.06$
|213>   Q  -1.3290  15.52$  15.06$  3.31$
|214>   Q  0.6645  0$  8.33$  6.41$
|215>   Q  0.6645  1.15$  9.23$  6.01$
|216>   Q  -1.3290  0.69$  8.53$  6.01$
|217>   Q  0.6645  6.9$  11.48$  22.33$
|218>   Q  0.6645  6.77$  10.8$  20.92$
|219>   Q  -1.3290  6.51$  11.06$  21.68$
|220>   Q  0.6645  3.8$  10.64$  19.35$
|221>   Q  0.6645  4.16$  10.47$  17.83$
|222>   Q  -1.3290  3.69$  10.76$  18.5$
|223>   Q  0.6645  17.02$  10.85$  6.86$
|224>   Q  0.6645  17.39$  9.38$  6.24$
|225>   Q  -1.3290  17.31$  10.26$  6.25$
|226>   Q  0.6645  9.33$  19.9$  14.11$
|227>   Q  0.6645  9.58$  18.8$  13.14$
|228>   Q  -1.3290  9.57$  19.13$  13.9$
|229>   Q  0.6645  8.91$  8.03$  18.5$
|230>   Q  0.6645  8.38$  9.13$  19.54$
|231>   Q  -1.3290  8.68$  8.34$  19.27$
|232>   Q  0.6645  15.28$  6.05$  19.42$
|233>   Q  0.6645  16$  7.02$  18.5$
|234>   Q  -1.3290  15.62$  6.8$  19.22$
|235>   Q  0.6645  16.6$  17.78$  15.96$
|236>   Q  0.6645  15.08$  17.89$  15.52$
|237>   Q  -1.3290  15.88$  17.51$  15.64$
|238>   Q  0.6645  0.9$  10.81$  13.89$
|239>   Q  0.6645  0.27$  11.5$  12.63$
|240>   Q  -1.3290  0.53$  10.84$  13.1$
|241>   Q  0.6645  10.44$  17.99$  10.83$
|242>   Q  0.6645  9.03$  17.7$  11.36$
|243>   Q  -1.3290  9.72$  18.17$  11.24$
|244>   Q  0.6645  14.86$  14.79$  12.67$
|245>   Q  0.6645  16.49$  14.88$  12.61$
|246>   Q  -1.3290  15.69$  14.52$  12.46$
|247>   Q  0.6645  17.23$  8.4$  14.97$
|248>   Q  0.6645  15.9$  7.59$  14.68$
|249>   Q  -1.3290  16.45$  8.26$  14.68$
|250>   Q  0.6645  14.31$  6.91$  12.4$
|251>   Q  0.6645  15.12$  6.32$  11.3$
|252>   Q  -1.3290  14.62$  6.88$  11.64$
|253>   Q  0.6645  10.02$  11.97$  6.8$
|254>   Q  0.6645  9.41$  12.52$  5.49$
|255>   Q  -1.3290  9.37$  12.2$  6.27$
|256>   Q  0.6645  15.24$  12.95$  20.4$
|257>   Q  0.6645  15.47$  14.23$  21.33$
|258>   Q  -1.3290  15.5$  13.39$  21.1$
|259>   Q  0.6645  5.48$  4.22$  6.81$
|260>   Q  0.6645  5.18$  4.74$  5.44$
|261>   Q  -1.3290  5.6$  4.31$  5.99$
|262>   Q  0.6645  18.92$  10.04$  19.1$
|263>   Q  0.6645  19.93$  8.88$  19.34$
|264>   Q  -1.3290  19.52$  9.47$  18.9$
|265>   Q  0.6645  11.31$  3.02$  3.68$
|266>   Q  0.6645  12.07$  2.51$  4.9$
|267>   Q  -1.3290  11.85$  2.52$  4.1$
|268>   Q  0.6645  17.31$  13.82$  20.28$
|269>   Q  0.6645  18.83$  14.11$  20.62$
|270>   Q  -1.3290  18.13$  14.03$  20.13$
|271>   Q  0.6645  4.22$  14.53$  18.76$
|272>   Q  0.6645  4.97$  15.98$  18.94$
|273>   Q  -1.3290  4.6$  15.24$  19.18$
|274>   Q  0.6645  3.14$  6.19$  16.13$
|275>   Q  0.6645  1.71$  6.79$  16.05$
|276>   Q  -1.3290  2.58$  6.78$  16$
|277>   Q  0.6645  11.47$  6.78$  14.29$
|278>   Q  0.6645  11.07$  7.31$  15.72$
|279>   Q  -1.3290  11.01$  7.18$  14.87$
|280>   Q  0.6645  19.73$  9.73$  10.23$
|281>   Q  0.6645  20.1$  8.81$  8.91$
|282>   Q  -1.3290  19.7$  9.41$  9.4$
|283>   Q  0.6645  16.02$  5.83$  8.85$
|284>   Q  0.6645  15.45$  4.58$  8.09$
|285>   Q  -1.3290  15.5$  5.15$  8.73$
|286>   Q  0.6645  6.53$  4.66$  12.39$
|287>   Q  0.6645  5.5$  4$  13.32$
|288>   Q  -1.3290  5.85$  4.15$  12.58$
|289>   Q  0.6645  13.17$  10.1$  16.54$
|290>   Q  0.6645  12.32$  11.28$  16.34$
|291>   Q  -1.3290  13.01$  10.93$  16.59$
|292>   Q  0.6645  15.64$  5.47$  13.48$
|293>   Q  0.6645  14.85$  5.52$  14.79$
|294>   Q  -1.3290  15.19$  5.84$  14.09$
|295>   Q  0.6645  4.86$  4.15$  15.56$
|296>   Q  0.6645  3.52$  3.86$  14.95$
|297>   Q  -1.3290  4.25$  4.28$  15.01$
|298>   Q  0.6645  12.5$  7$  8.83$
|299>   Q  0.6645  13.6$  6.43$  8.16$
|300>   Q  -1.3290  12.93$  6.83$  8.15$
|301>   Q  0.6645  17.63$  18.77$  17.43$
|302>   Q  0.6645  18.4$  17.55$  17.05$
|303>   Q  -1.3290  18.07$  18.28$  16.93$
|304>   Q  0.6645  10.09$  12.4$  21.39$
|305>   Q  0.6645  10.83$  13.69$  20.83$
|306>   Q  -1.3290  10.24$  13.23$  21.34$
|307>   Q  0.6645  13.52$  16.53$  5.71$
|308>   Q  0.6645  14.11$  15.94$  4.41$
|309>   Q  -1.3290  13.68$  16.53$  4.88$
|310>   Q  0.6645  11.64$  6.2$  4.99$
|311>   Q  0.6645  11.79$  5.21$  3.76$
|312>   Q  -1.3290  12.08$  5.7$  4.42$
|313>   Q  0.6645  5.51$  10.63$  4.31$
|314>   Q  0.6645  5.64$  12.04$  4.8$
|315>   Q  -1.3290  5.29$  11.43$  4.37$
|316>   Q  0.6645  7.93$  15.92$  9.78$
|317>   Q  0.6645  6.65$  16.06$  10.69$
|318>   Q  -1.3290  7.28$  16.31$  10.15$
|319>   Q  0.6645  4.01$  19.12$  11.22$
|320>   Q  0.6645  3.69$  19.94$  12.44$
|321>   Q  -1.3290  3.55$  19.36$  11.86$
|322>   Q  0.6645  15.41$  3.6$  10.51$
|323>   Q  0.6645  15.88$  2.17$  10.97$
|324>   Q  -1.3290  15.34$  2.83$  10.89$
|325>   Q  0.6645  2.69$  16.9$  13.54$
|326>   Q  0.6645  2.24$  18.22$  13.05$
|327>   Q  -1.3290  2.16$  17.4$  13.15$
|328>   Q  0.6645  11.59$  18.38$  7.13$
|329>   Q  0.6645  11.34$  19.73$  6.57$
|330>   Q  -1.3290  11.11$  18.96$  6.78$
|331>   Q  0.6645  17.7$  11.41$  17.37$
|332>   Q  0.6645  17.1$  11.29$  15.86$
|333>   Q  -1.3290  17.7$  11.37$  16.51$
|334>   Q  0.6645  10.42$  8.42$  17.09$
|335>   Q  0.6645  11.33$  7.8$  18.06$
|336>   Q  -1.3290  10.73$  7.77$  17.5$
|337>   Q  0.6645  8.04$  8.67$  1.04$
|338>   Q  0.6645  9.44$  8.31$  1.67$
|339>   Q  -1.3290  8.82$  8.81$  1.4$
|340>   Q  0.6645  1.28$  10.58$  16.33$
|341>   Q  0.6645  2.28$  9.69$  15.51$
|342>   Q  -1.3290  1.79$  10.35$  15.68$
|343>   Q  0.6645  7.22$  16.36$  4.26$
|344>   Q  0.6645  6.02$  15.64$  3.68$
|345>   Q  -1.3290  6.47$  15.98$  4.3$
|346>   Q  0.6645  17.14$  7.55$  7.15$
|347>   Q  0.6645  17.96$  7.09$  5.87$
|348>   Q  -1.3290  17.46$  7.59$  6.36$
|349>   Q  0.6645  3.4$  17.78$  6.86$
|350>   Q  0.6645  3.65$  18.22$  5.35$
|351>   Q  -1.3290  3.22$  17.92$  6.03$
|352>   Q  0.6645  5.35$  14.23$  16.15$
|353>   Q  0.6645  4.32$  13.22$  15.49$
|354>   Q  -1.3290  4.59$  13.88$  15.98$
|355>   Q  0.6645  2.6$  9.26$  11.11$
|356>   Q  0.6645  1.26$  9.69$  11.7$
|357>   Q  -1.3290  1.76$  9.24$  11.22$
|358>   Q  0.6645  7.02$  18.09$  12.81$
|359>   Q  0.6645  7.17$  17.58$  14.29$
|360>   Q  -1.3290  6.91$  17.53$  13.46$
|361>   Q  0.6645  3.03$  6.9$  8.19$
|362>   Q  0.6645  2.45$  8.34$  7.6$
|363>   Q  -1.3290  3.02$  7.65$  7.71$
|364>   Q  0.6645  7.69$  18.8$  8.88$
|365>   Q  0.6645  7.65$  20.35$  8.43$
|366>   Q  -1.3290  7.55$  19.66$  8.97$
|367>   Q  0.6645  11.68$  15.88$  4.81$
|368>   Q  0.6645  10.34$  15.69$  3.97$
|369>   Q  -1.3290  10.98$  15.51$  4.54$
|370>   Q  0.6645  17.95$  17.91$  6.32$
|371>   Q  0.6645  18.22$  16.53$  6.81$
|372>   Q  -1.3290  17.89$  17.29$  6.87$
|373>   Q  0.6645  11.56$  16.69$  15.41$
|374>   Q  0.6645  10.73$  17.95$  15.25$
|375>   Q  -1.3290  11.25$  17.45$  15.63$
|376>   Q  0.6645  2.95$  11.68$  14.97$
|377>   Q  0.6645  2.85$  12.67$  13.76$
|378>   Q  -1.3290  3.27$  12.23$  14.39$
|379>   Q  0.6645  15.45$  6.35$  4.9$
|380>   Q  0.6645  13.85$  6.24$  4.65$
|381>   Q  -1.3290  14.66$  6.56$  4.59$
|382>   Q  0.6645  14.83$  16.1$  18.42$
|383>   Q  0.6645  15.33$  16.04$  17.02$
|384>   Q  -1.3290  15.06$  15.71$  17.75$
|385>   Q  0.6645  13.31$  4.96$  13.39$
|386>   Q  0.6645  11.83$  4.55$  13$
|387>   Q  -1.3290  12.47$  5.01$  13.32$
|388>   Q  0.6645  6.33$  2.21$  11.72$
|389>   Q  0.6645  6$  1.01$  10.8$
|390>   Q  -1.3290  6.45$  1.43$  11.41$
|391>   Q  0.6645  2.49$  20.21$  7.82$
|392>   Q  0.6645  3.64$  19.45$  8.47$
|393>   Q  -1.3290  3.13$  20.11$  8.38$
|394>   Q  0.6645  13.99$  2.57$  13.91$
|395>   Q  0.6645  14.62$  3.22$  12.69$
|396>   Q  -1.3290  14.48$  3.15$  13.52$
|397>   Q  0.6645  10.7$  4.47$  9.38$
|398>   Q  0.6645  11.33$  5.39$  10.39$
|399>   Q  -1.3290  10.92$  4.67$  10.13$
|400>   Q  0.6645  12.46$  17.49$  9.65$
|401>   Q  0.6645  12.77$  18.39$  10.98$
|402>   Q  -1.3290  12.41$  18.15$  10.21$
|403>   Q  0.6645  3.42$  15.83$  6.15$
|404>   Q  0.6645  4.24$  14.75$  5.39$
|405>   Q  -1.3290  3.77$  15.04$  6.02$
|406>   Q  0.6645  12.01$  2.63$  10.01$
|407>   Q  0.6645  13.46$  2.28$  10.54$
|408>   Q  -1.3290  12.68$  2.14$  10.13$
|409>   Q  0.6645  11.07$  6.56$  1.06$
|410>   Q  0.6645  11.68$  6.65$  2.51$
|411>   Q  -1.3290  11.08$  6.63$  1.92$
|412>   Q  0.6645  7.3$  21.86$  14.7$
|413>   Q  0.6645  6.5$  20.59$  14.49$
|414>   Q  -1.3290  7.03$  21.1$  14.93$
|415>   Q  0.6645  3.67$  17.33$  9.33$
|416>   Q  0.6645  4.99$  17.6$  8.5$
|417>   Q  -1.3290  4.17$  17.7$  8.74$
|418>   Q  0.6645  17.38$  11.9$  19.75$
|419>   Q  0.6645  16.64$  10.63$  19.77$
|420>   Q  -1.3290  17.12$  11.2$  19.39$
|421>   Q  0.6645  10.96$  15.38$  16.95$
|422>   Q  0.6645  10.33$  16.01$  18.24$
|423>   Q  -1.3290  10.46$  15.42$  17.64$
|424>   Q  0.6645  2.04$  4.78$  8.39$
|425>   Q  0.6645  2.63$  5.13$  9.81$
|426>   Q  -1.3290  2.34$  5.28$  9.03$
|427>   Q  0.6645  20.01$  16.02$  17.89$
|428>   Q  0.6645  18.83$  15.38$  18.62$
|429>   Q  -1.3290  19.2$  15.88$  18.08$
|430>   Q  0.6645  4.11$  6.53$  4.67$
|431>   Q  0.6645  3.82$  6.57$  6.1$
|432>   Q  -1.3290  3.94$  6.19$  5.39$
|433>   Q  0.6645  1.36$  14.86$  13.35$
|434>   Q  0.6645  0.66$  14.07$  14.47$
|435>   Q  -1.3290  1.03$  14.16$  13.71$
|436>   Q  0.6645  17.86$  4.76$  14.92$
|437>   Q  0.6645  18.21$  6.34$  14.74$
|438>   Q  -1.3290  18.11$  5.57$  15.16$
|439>   Q  0.6645  10.14$  11.61$  2.62$
|440>   Q  0.6645  10.54$  13.1$  3.12$
|441>   Q  -1.3290  10.1$  12.34$  3.09$
|442>   Q  0.6645  12.57$  2.67$  16.07$
|443>   Q  0.6645  12.14$  3.71$  14.93$
|444>   Q  -1.3290  12.12$  3.29$  15.67$
|445>   Q  0.6645  5.98$  8.79$  16.78$
|446>   Q  0.6645  7.13$  7.92$  16.59$
|447>   Q  -1.3290  6.76$  8.61$  16.87$
|448>   Q  0.6645  10.51$  3.21$  11.98$
|449>   Q  0.6645  9.83$  3.67$  13.36$
|450>   Q  -1.3290  10.41$  3.29$  12.83$
|451>   Q  0.6645  13.17$  14.78$  16.08$
|452>   Q  0.6645  12.07$  14.03$  15.42$
|453>   Q  -1.3290  12.51$  14.71$  15.6$
|454>   Q  0.6645  1.73$  9.36$  1.7$
|455>   Q  0.6645  2.29$  10.38$  2.66$
|456>   Q  -1.3290  2.36$  9.76$  2.07$
|457>   Q  0.6645  16.04$  16.94$  7.85$
|458>   Q  0.6645  15.26$  16.01$  8.88$
|459>   Q  -1.3290  15.39$  16.69$  8.35$
|460>   Q  0.6645  16.61$  10.39$  4.45$
|461>   Q  0.6645  15.46$  9.78$  3.77$
|462>   Q  -1.3290  16.1$  10.28$  3.79$
|463>   Q  0.6645  17.47$  11.91$  12.32$
|464>   Q  0.6645  18.33$  12.1$  11.15$
|465>   Q  -1.3290  18.15$  12.17$  11.97$
|466>   Q  0.6645  11.92$  1.91$  7.85$
|467>   Q  0.6645  12.28$  3.28$  7.25$
|468>   Q  -1.3290  12.29$  2.43$  7.26$
|469>   Q  0.6645  7.96$  2.4$  14.77$
|470>   Q  0.6645  6.98$  3.08$  13.75$
|471>   Q  -1.3290  7.22$  2.71$  14.49$
|472>   Q  0.6645  21.02$  10.78$  8.11$
|473>   Q  0.6645  20.37$  11.45$  6.82$
|474>   Q  -1.3290  20.72$  11.43$  7.61$
|475>   Q  0.6645  10.55$  10.53$  19.75$
|476>   Q  0.6645  11.9$  10.12$  18.92$
|477>   Q  -1.3290  11.2$  10.6$  19.2$
|478>   Q  0.6645  5.05$  16.56$  14.01$
|479>   Q  0.6645  4.19$  15.57$  14.75$
|480>   Q  -1.3290  4.39$  16.31$  14.45$
|481>   Q  0.6645  12.88$  20.14$  4.46$
|482>   Q  0.6645  13.01$  18.59$  4$
|483>   Q  -1.3290  12.97$  19.47$  3.9$
|484>   Q  0.6645  14.38$  18.75$  12.47$
|485>   Q  0.6645  13.49$  17.52$  12.78$
|486>   Q  -1.3290  13.68$  18.33$  12.71$
|487>   Q  0.6645  21.57$  13.22$  8.5$
|488>   Q  0.6645  20.87$  13.91$  9.83$
|489>   Q  -1.3290  21.39$  13.8$  9.11$
|490>   Q  0.6645  14.59$  5.86$  2.73$
|491>   Q  0.6645  13.56$  5.05$  1.94$
|492>   Q  -1.3290  14.12$  5.66$  2.05$
|493>   Q  0.6645  7.8$  11.46$  18.65$
|494>   Q  0.6645  7$  10.17$  18.52$
|495>   Q  -1.3290  7.47$  10.75$  18.92$
|496>   Q  0.6645  16.19$  19.49$  11$
|497>   Q  0.6645  15.6$  18.28$  10.09$
|498>   Q  -1.3290  15.75$  18.75$  10.82$
|499>   Q  0.6645  6.17$  6.82$  1.75$
|500>   Q  0.6645  7.16$  5.72$  1.69$
|501>   Q  -1.3290  6.43$  6.03$  1.88$
|502>   Q  0.6645  10.86$  18.1$  18.56$
|503>   Q  0.6645  10.99$  17.37$  19.97$
|504>   Q  -1.3290  10.66$  17.52$  19.16$
|505>   Q  0.6645  11.23$  20.87$  10.89$
|506>   Q  0.6645  9.87$  20.22$  10.57$
|507>   Q  -1.3290  10.44$  20.88$  10.61$
|508>   Q  0.6645  9.25$  4.27$  4.7$
|509>   Q  0.6645  9.22$  4.06$  3.1$
|510>   Q  -1.3290  9.57$  4.22$  3.86$
|511>   Q  0.6645  20.15$  13.17$  12.04$
|512>   Q  0.6645  21.51$  13.7$  12.51$
|513>   Q  -1.3290  20.99$  13.22$  12.03$
|514>   Q  0.6645  19.31$  12.04$  8.82$
|515>   Q  0.6645  17.81$  11.95$  8.86$
|516>   Q  -1.3290  18.55$  12.08$  9.21$
|517>   Q  0.6645  15.92$  3.21$  5.94$
|518>   Q  0.6645  16.52$  4.46$  5.6$
|519>   Q  -1.3290  16.03$  3.97$  6.07$
|520>   Q  0.6645  13.41$  9.3$  3.75$
|521>   Q  0.6645  13.95$  8.17$  2.87$
|522>   Q  -1.3290  13.74$  8.96$  3.07$
|523>   Q  0.6645  11.68$  20.1$  13.83$
|524>   Q  0.6645  12.51$  20.73$  12.72$
|525>   Q  -1.3290  11.92$  20.73$  13.34$
|526>   Q  0.6645  3.12$  15.17$  11.67$
|527>   Q  0.6645  4.42$  14.29$  11.56$
|528>   Q  -1.3290  3.7$  14.57$  11.92$
|529>   Q  0.6645  18.85$  14.71$  13.76$
|530>   Q  0.6645  18.57$  16.11$  13.12$
|531>   Q  -1.3290  18.99$  15.37$  13.22$
|532>   Q  0.6645  1.39$  12.93$  10.36$
|533>   Q  0.6645  2.65$  13.22$  11.06$
|534>   Q  -1.3290  2.17$  12.76$  10.57$
|535>   Q  0.6645  13.81$  9.96$  -0.23$
|536>   Q  0.6645  13.1$  9.49$  1.04$
|537>   Q  -1.3290  13.14$  9.68$  0.23$
|538>   Q  0.6645  6.86$  16.07$  16.7$
|539>   Q  0.6645  7.55$  14.68$  16.81$
|540>   Q  -1.3290  6.97$  15.23$  16.54$
|541>   Q  0.6645  10.09$  3.02$  7.15$
|542>   Q  0.6645  9.63$  4.5$  7$
|543>   Q  -1.3290  10.04$  3.83$  7.37$
|544>   Q  0.6645  4.25$  18.25$  15.65$
|545>   Q  0.6645  3.05$  18.46$  16.51$
|546>   Q  -1.3290  3.62$  18.69$  15.96$
|547>   Q  0.6645  16.7$  17.54$  12.17$
|548>   Q  0.6645  16.57$  17.11$  13.72$
|549>   Q  -1.3290  16.92$  17.19$  12.92$
|550>   Q  0.6645  6.65$  12.2$  3.02$
|551>   Q  0.6645  8.23$  12.4$  2.75$
|552>   Q  -1.3290  7.41$  12.13$  2.59$
|553>   Q  0.6645  13.19$  13.21$  3.89$
|554>   Q  0.6645  12.14$  13.82$  4.83$
|555>   Q  -1.3290  12.75$  13.29$  4.6$
|556>   Q  0.6645  4.31$  4.58$  11.59$
|557>   Q  0.6645  3.4$  5.71$  12.04$
|558>   Q  -1.3290  3.6$  5.01$  11.62$
|559>   Q  0.6645  18.84$  16.76$  9.82$
|560>   Q  0.6645  18.44$  17.58$  8.77$
|561>   Q  -1.3290  18.78$  17.5$  9.49$
|562>   Q  0.6645  14.41$  11.11$  15.44$
|563>   Q  0.6645  15.27$  9.98$  14.91$
|564>   Q  -1.3290  15.08$  10.79$  15$
|565>   Q  0.6645  20.04$  8.98$  14.43$
|566>   Q  0.6645  19.35$  9.4$  15.77$
|567>   Q  -1.3290  19.73$  8.85$  15.21$
|568>   Q  0.6645  6.77$  21.32$  6.86$
|569>   Q  0.6645  7.57$  22.51$  7.66$
|570>   Q  -1.3290  7.45$  21.76$  7.23$
|571>   Q  0.6645  8.04$  0.63$  12.1$
|572>   Q  0.6645  9.52$  0.01$  12.09$
|573>   Q  -1.3290  8.73$  0.14$  12.41$
|574>   Q  0.6645  20.13$  6.11$  9.38$
|575>   Q  0.6645  19.47$  5.96$  10.85$
|576>   Q  -1.3290  19.52$  6.05$  9.98$
|577>   Q  0.6645  17.41$  5.82$  11.68$
|578>   Q  0.6645  17.02$  4.42$  12.17$
|579>   Q  -1.3290  16.92$  5.15$  11.78$
|580>   Q  0.6645  11.37$  10.4$  -0.06$
|581>   Q  0.6645  9.96$  9.96$  0.64$
|582>   Q  -1.3290  10.55$  10.45$  0.24$
|583>   Q  0.6645  1.3$  9.68$  9.18$
|584>   Q  0.6645  1.57$  10.65$  8.09$
|585>   Q  -1.3290  1.37$  9.89$  8.39$
|586>   Q  0.6645  4.78$  20.43$  6.3$
|587>   Q  0.6645  5.52$  19.13$  6.77$
|588>   Q  -1.3290  5.31$  19.76$  6.24$
|589>   Q  0.6645  6.28$  3.78$  2.61$
|590>   Q  0.6645  6.24$  3.26$  4.02$
|591>   Q  -1.3290  6.32$  3.18$  3.18$
|592>   Q  0.6645  13.63$  4.3$  16.3$
|593>   Q  0.6645  14.96$  4.77$  16.94$
|594>   Q  -1.3290  14.27$  4.86$  16.46$
|595>   Q  0.6645  3.96$  5.85$  18.32$
|596>   Q  0.6645  3.38$  7.37$  18.27$
|597>   Q  -1.3290  3.96$  6.74$  18.28$
|598>   Q  0.6645  12.98$  15.44$  12.36$
|599>   Q  0.6645  13.19$  15.47$  13.87$
|600>   Q  -1.3290  13.4$  15.63$  13.07$
|601>   Q  0.6645  6.93$  19.89$  10.96$
|602>   Q  0.6645  7.38$  20.43$  12.19$
|603>   Q  -1.3290  6.94$  19.89$  11.75$
|604>   Q  0.6645  7.26$  17.29$  6.83$
|605>   Q  0.6645  6.07$  16.73$  6.19$
|606>   Q  -1.3290  6.47$  17.16$  6.8$
|607>   Q  0.6645  3.99$  8.18$  16.05$
|608>   Q  0.6645  4.68$  9.35$  15.09$
|609>   Q  -1.3290  4.42$  8.96$  15.83$
|610>   Q  0.6645  17.74$  6.88$  9.24$
|611>   Q  0.6645  16.79$  7.93$  9.77$
|612>   Q  -1.3290  17.07$  7.38$  9.23$
|613>   Q  0.6645  7.49$  5.11$  6.11$
|614>   Q  0.6645  8.61$  6.1$  5.96$
|615>   Q  -1.3290  8.29$  5.34$  6.17$
|616>   Q  0.6645  8.52$  5.57$  12.92$
|617>   Q  0.6645  8.03$  4.94$  14.25$
|618>   Q  -1.3290  8.27$  4.94$  13.43$
|619>   Q  0.6645  0.66$  5.64$  10.48$
|620>   Q  0.6645  0.4$  7.06$  11.12$
|621>   Q  -1.3290  0.36$  6.22$  11.05$
|622>   Q  0.6645  3.16$  13.87$  17.26$
|623>   Q  0.6645  2.93$  12.54$  17.98$
|624>   Q  -1.3290  2.77$  13.38$  17.8$
|625>   Q  0.6645  13.11$  19.54$  8.99$
|626>   Q  0.6645  13.97$  20.79$  8.67$
|627>   Q  -1.3290  13.58$  20.05$  8.48$
|628>   Q  0.6645  8.25$  5.99$  16.54$
|629>   Q  0.6645  9.02$  6.68$  15.41$
|630>   Q  -1.3290  8.35$  6.33$  15.78$
|631>   Q  0.6645  13.65$  7.77$  19.2$
|632>   Q  0.6645  12.54$  8.17$  20.32$
|633>   Q  -1.3290  12.86$  8$  19.5$
|634>   Q  0.6645  15.24$  12.55$  1.41$
|635>   Q  0.6645  15.08$  11.85$  2.69$
|636>   Q  -1.3290  14.98$  12.49$  2.19$
|637>   Q  0.6645  2.83$  11.96$  4.09$
|638>   Q  0.6645  1.49$  12.5$  4.4$
|639>   Q  -1.3290  2.04$  12.17$  3.89$
|640>   Q  0.6645  10.33$  0.35$  8.68$
|641>   Q  0.6645  9.18$  1.27$  8.48$
|642>   Q  -1.3290  9.94$  0.98$  8.34$
|643>   Q  0.6645  20.49$  13.61$  16.08$
|644>   Q  0.6645  21.57$  13.11$  16.98$
|645>   Q  -1.3290  21.24$  13.62$  16.43$
|646>   Q  0.6645  6.98$  14$  5.32$
|647>   Q  0.6645  6.62$  13.08$  6.57$
|648>   Q  -1.3290  6.59$  13.37$  5.71$
|649>   Q  0.6645  3.04$  3.27$  12.16$
|650>   Q  0.6645  2.34$  2.25$  13.17$
|651>   Q  -1.3290  2.68$  2.54$  12.41$
|652>   Q  0.6645  11.71$  14.57$  19.18$
|653>   Q  0.6645  12.82$  13.72$  19.67$
|654>   Q  -1.3290  12.14$  14.2$  19.76$
|655>   Q  0.6645  2.56$  7.76$  12.34$
|656>   Q  0.6645  2.7$  7.34$  13.82$
|657>   Q  -1.3290  2.94$  7.41$  13.01$
|658>   Q  0.6645  8.56$  15.8$  2.31$
|659>   Q  0.6645  9.09$  17.13$  2.74$
|660>   Q  -1.3290  8.82$  16.36$  2.87$
|661>   Q  0.6645  20.77$  9.98$  12.62$
|662>   Q  0.6645  19.31$  10.69$  12.54$
|663>   Q  -1.3290  19.89$  10.06$  12.47$
|664>   Q  0.6645  6.55$  4.49$  17.63$
|665>   Q  0.6645  6.66$  3.68$  16.26$
|666>   Q  -1.3290  6.32$  4.24$  16.86$
|667>   Q  0.6645  2.53$  13.08$  8.55$
|668>   Q  0.6645  2.38$  13.45$  7.14$
|669>   Q  -1.3290  2.35$  12.93$  7.76$
|670>   Q  0.6645  18.15$  14.56$  9.82$
|671>   Q  0.6645  18.92$  15.05$  11.16$
|672>   Q  -1.3290  18.78$  14.9$  10.31$
|673>   Q  0.6645  14.43$  12.3$  18.21$
|674>   Q  0.6645  14.97$  13.78$  18.45$
|675>   Q  -1.3290  14.63$  13.01$  18.67$
|676> *
|677> 
|678>                          ****END OF INPUT****
================================================================================

                     *******************************
                     * Energy+Gradient Calculation *
                     *******************************

---------------------------------
CARTESIAN COORDINATES (ANGSTROEM)
---------------------------------
  C     11.880000   11.680000   11.440000
  H     12.120000   12.290000   10.590000
  H     12.000000   10.530000   11.200000
  C     10.440000   11.900000   11.850000
  H     10.190000   11.030000   12.470000
  H     10.260000   12.750000   12.500000
  C      9.470000   11.890000   10.640000
  H      9.850000   12.490000    9.800000
  H      8.630000   12.500000   10.900000
  C      8.920000   10.550000   10.200000
  H      8.070000   10.580000    9.480000
  H      8.420000   10.020000   11.040000
  O      9.990000    9.790000    9.560000
  H      9.480000    8.970000    9.160000
  O     12.690000   12.060000   12.560000
  H     13.650000   12.030000   12.290000
  O     12.750000   10.030000    8.930000
  H     11.850000    9.750000    9.210000
  H     13.400000    9.630000    9.560000
  O      7.240000   10.540000   13.970000
  H      7.770000    9.820000   13.650000
  H      6.550000   10.880000   13.340000
  O     13.370000   13.640000    8.530000
  H     13.850000   14.050000    7.770000
  H     12.630000   13.140000    8.170000
  O      8.650000    7.960000    7.950000
  H      8.050000    8.530000    7.480000
  H      8.280000    7.400000    8.670000
  O      8.520000   12.810000   14.850000
  H      8.010000   11.960000   14.630000
  H      8.180000   13.450000   14.210000
  O      8.490000   12.860000   17.670000
  H      8.370000   12.880000   16.750000
  H      9.330000   13.260000   17.840000
  O      5.930000    8.480000   11.090000
  H      5.340000    9.240000   11.000000
  H      5.860000    8.120000   11.970000
  O     12.660000   15.190000   10.600000
  H     13.010000   14.680000    9.880000
  H     11.760000   15.230000   10.310000
  O     15.180000   14.230000    6.480000
  H     14.560000   13.700000    5.960000
  H     15.380000   15.050000    5.970000
  O      6.190000    6.560000    9.100000
  H      6.150000    6.860000    8.200000
  H      5.910000    7.300000    9.740000
  O      7.170000   10.070000    6.140000
  H      7.330000    9.670000    5.290000
  H      7.820000   10.810000    6.210000
  O     10.780000    7.190000    6.290000
  H     10.100000    7.670000    6.790000
  H     11.470000    7.090000    6.910000
  O      9.350000    9.950000   16.350000
  H      9.350000   10.440000   17.160000
  H      8.420000    9.670000   16.160000
  O     11.730000    7.300000   10.510000
  H     10.980000    7.750000   10.840000
  H     12.430000    7.600000   11.080000
  O     15.390000    9.460000   10.570000
  H     15.810000   10.130000   11.150000
  H     15.140000    8.690000   11.120000
  O     15.760000   14.430000    9.790000
  H     15.650000   14.550000   10.720000
  H     15.200000   13.650000    9.630000
  O      5.720000   12.770000    8.000000
  H      4.810000   13.020000    7.680000
  H      5.780000   11.820000    8.200000
  O      9.160000   14.620000    7.820000
  H      9.040000   15.490000    7.400000
  H      9.540000   13.970000    7.190000
  O      8.360000   14.790000   12.530000
  H      7.620000   14.610000   11.940000
  H      8.330000   15.670000   12.910000
  O     15.390000   11.750000   12.380000
  H     15.190000   11.670000   13.350000
  H     15.510000   12.740000   12.270000
  O     10.010000   15.450000   10.150000
  H      9.490000   15.040000   10.910000
  H      9.860000   14.890000    9.380000
  O      9.060000    8.470000   12.850000
  H      8.720000    7.910000   12.130000
  H      9.660000    7.870000   13.340000
  O     11.600000   11.890000    7.260000
  H     12.060000   12.090000    6.440000
  H     11.970000   11.070000    7.650000
  O      8.550000    6.220000   10.970000
  H      7.670000    6.140000   10.540000
  H      9.060000    5.630000   10.430000
  O     12.620000    8.760000   13.120000
  H     11.720000    8.630000   13.480000
  H     12.790000    9.660000   12.930000
  O     12.640000   16.780000    7.470000
  H     13.480000   17.000000    7.860000
  H     12.310000   15.970000    7.810000
  O      6.310000   13.890000   10.910000
  H      5.920000   13.110000   11.430000
  H      6.250000   13.670000    9.970000
  O     11.330000   12.310000   14.960000
  H     11.660000   12.170000   14.050000
  H     10.420000   12.310000   14.880000
  O      5.180000   11.690000   12.370000
  H      4.610000   12.060000   13.070000
  H      4.600000   11.320000   11.660000
  O     15.790000   11.430000    8.240000
  H     14.940000   11.790000    7.960000
  H     15.510000   10.630000    8.610000
  O      5.300000    9.620000    8.130000
  H      4.540000    9.160000    7.780000
  H      5.970000    9.780000    7.450000
  Q     18.860000    8.480000   12.200000
  Q     17.540000    7.720000   12.780000
  Q     18.330000    7.800000   12.430000
  Q      8.180000    3.110000    8.310000
  Q      6.940000    2.850000    9.040000
  Q      7.650000    2.640000    8.680000
  Q     19.710000   10.450000    4.110000
  Q     18.900000   11.070000    5.220000
  Q     19.570000   10.980000    4.730000
  Q      7.890000    6.010000   18.760000
  Q      8.430000    4.600000   18.810000
  Q      8.210000    5.330000   18.430000
  Q     21.190000    6.480000    7.230000
  Q     22.270000    7.120000    8.070000
  Q     21.470000    6.920000    7.870000
  Q     11.900000    5.330000   18.970000
  Q     10.490000    5.600000   18.560000
  Q     11.090000    5.160000   18.920000
  Q     14.260000    8.410000    5.540000
  Q     13.080000    8.900000    6.360000
  Q     13.700000    8.970000    5.820000
  Q      9.190000   16.760000    5.510000
  Q      9.600000   17.960000    6.360000
  Q      9.120000   17.250000    6.180000
  Q      5.090000    4.750000    9.170000
  Q      4.490000    3.340000    8.830000
  Q      5.110000    3.930000    9.030000
  Q     20.660000   16.200000   14.020000
  Q     22.070000   16.820000   13.900000
  Q     21.280000   16.730000   14.180000
  Q     18.050000    6.690000   16.910000
  Q     18.410000    7.790000   18.030000
  Q     17.970000    7.120000   17.680000
  Q      8.780000    6.550000    3.730000
  Q      7.230000    6.440000    3.850000
  Q      8.010000    6.690000    4.070000
  Q     17.240000   13.860000    7.380000
  Q     18.680000   13.860000    7.930000
  Q     18.050000   14.140000    7.470000
  Q      7.350000    9.730000    2.980000
  Q      7.250000    8.410000    3.590000
  Q      6.950000    9.130000    3.400000
  Q      6.530000   18.040000   17.430000
  Q      7.300000   18.640000   16.310000
  Q      6.820000   18.100000   16.660000
  Q     18.270000   14.900000   16.140000
  Q     17.780000   13.370000   15.820000
  Q     18.180000   14.140000   15.690000
  Q     13.670000   18.980000   14.450000
  Q     12.770000   18.580000   15.670000
  Q     13.460000   18.960000   15.270000
  Q     13.200000    8.330000   15.140000
  Q     13.690000    7.620000   16.520000
  Q     13.440000    8.250000   16.000000
  Q      3.690000    8.480000    2.880000
  Q      5.140000    8.420000    3.280000
  Q      4.370000    8.110000    3.180000
  Q      6.650000    7.010000   14.440000
  Q      5.380000    6.680000   13.600000
  Q      6.140000    7.030000   13.780000
  Q      2.240000   17.130000   11.220000
  Q      1.730000   16.750000    9.860000
  Q      2.250000   16.720000   10.500000
  Q      8.650000   17.190000   19.690000
  Q      8.300000   16.510000   21.110000
  Q      8.260000   17.100000   20.470000
  Q     19.250000   14.950000    6.340000
  Q     20.470000   15.400000    5.410000
  Q     19.740000   15.460000    5.840000
  Q      4.430000   10.350000    9.500000
  Q      3.270000   11.180000   10.070000
  Q      3.850000   10.600000   10.080000
  Q     12.920000   13.070000    1.890000
  Q     11.610000   13.530000    1.040000
  Q     12.200000   13.520000    1.680000
  Q     15.570000   15.750000    2.860000
  Q     15.470000   14.220000    3.060000
  Q     15.520000   15.060000    3.310000
  Q      0.000000    8.330000    6.410000
  Q      1.150000    9.230000    6.010000
  Q      0.690000    8.530000    6.010000
  Q      6.900000   11.480000   22.330000
  Q      6.770000   10.800000   20.920000
  Q      6.510000   11.060000   21.680000
  Q      3.800000   10.640000   19.350000
  Q      4.160000   10.470000   17.830000
  Q      3.690000   10.760000   18.500000
  Q     17.020000   10.850000    6.860000
  Q     17.390000    9.380000    6.240000
  Q     17.310000   10.260000    6.250000
  Q      9.330000   19.900000   14.110000
  Q      9.580000   18.800000   13.140000
  Q      9.570000   19.130000   13.900000
  Q      8.910000    8.030000   18.500000
  Q      8.380000    9.130000   19.540000
  Q      8.680000    8.340000   19.270000
  Q     15.280000    6.050000   19.420000
  Q     16.000000    7.020000   18.500000
  Q     15.620000    6.800000   19.220000
  Q     16.600000   17.780000   15.960000
  Q     15.080000   17.890000   15.520000
  Q     15.880000   17.510000   15.640000
  Q      0.900000   10.810000   13.890000
  Q      0.270000   11.500000   12.630000
  Q      0.530000   10.840000   13.100000
  Q     10.440000   17.990000   10.830000
  Q      9.030000   17.700000   11.360000
  Q      9.720000   18.170000   11.240000
  Q     14.860000   14.790000   12.670000
  Q     16.490000   14.880000   12.610000
  Q     15.690000   14.520000   12.460000
  Q     17.230000    8.400000   14.970000
  Q     15.900000    7.590000   14.680000
  Q     16.450000    8.260000   14.680000
  Q     14.310000    6.910000   12.400000
  Q     15.120000    6.320000   11.300000
  Q     14.620000    6.880000   11.640000
  Q     10.020000   11.970000    6.800000
  Q      9.410000   12.520000    5.490000
  Q      9.370000   12.200000    6.270000
  Q     15.240000   12.950000   20.400000
  Q     15.470000   14.230000   21.330000
  Q     15.500000   13.390000   21.100000
  Q      5.480000    4.220000    6.810000
  Q      5.180000    4.740000    5.440000
  Q      5.600000    4.310000    5.990000
  Q     18.920000   10.040000   19.100000
  Q     19.930000    8.880000   19.340000
  Q     19.520000    9.470000   18.900000
  Q     11.310000    3.020000    3.680000
  Q     12.070000    2.510000    4.900000
  Q     11.850000    2.520000    4.100000
  Q     17.310000   13.820000   20.280000
  Q     18.830000   14.110000   20.620000
  Q     18.130000   14.030000   20.130000
  Q      4.220000   14.530000   18.760000
  Q      4.970000   15.980000   18.940000
  Q      4.600000   15.240000   19.180000
  Q      3.140000    6.190000   16.130000
  Q      1.710000    6.790000   16.050000
  Q      2.580000    6.780000   16.000000
  Q     11.470000    6.780000   14.290000
  Q     11.070000    7.310000   15.720000
  Q     11.010000    7.180000   14.870000
  Q     19.730000    9.730000   10.230000
  Q     20.100000    8.810000    8.910000
  Q     19.700000    9.410000    9.400000
  Q     16.020000    5.830000    8.850000
  Q     15.450000    4.580000    8.090000
  Q     15.500000    5.150000    8.730000
  Q      6.530000    4.660000   12.390000
  Q      5.500000    4.000000   13.320000
  Q      5.850000    4.150000   12.580000
  Q     13.170000   10.100000   16.540000
  Q     12.320000   11.280000   16.340000
  Q     13.010000   10.930000   16.590000
  Q     15.640000    5.470000   13.480000
  Q     14.850000    5.520000   14.790000
  Q     15.190000    5.840000   14.090000
  Q      4.860000    4.150000   15.560000
  Q      3.520000    3.860000   14.950000
  Q      4.250000    4.280000   15.010000
  Q     12.500000    7.000000    8.830000
  Q     13.600000    6.430000    8.160000
  Q     12.930000    6.830000    8.150000
  Q     17.630000   18.770000   17.430000
  Q     18.400000   17.550000   17.050000
  Q     18.070000   18.280000   16.930000
  Q     10.090000   12.400000   21.390000
  Q     10.830000   13.690000   20.830000
  Q     10.240000   13.230000   21.340000
  Q     13.520000   16.530000    5.710000
  Q     14.110000   15.940000    4.410000
  Q     13.680000   16.530000    4.880000
  Q     11.640000    6.200000    4.990000
  Q     11.790000    5.210000    3.760000
  Q     12.080000    5.700000    4.420000
  Q      5.510000   10.630000    4.310000
  Q      5.640000   12.040000    4.800000
  Q      5.290000   11.430000    4.370000
  Q      7.930000   15.920000    9.780000
  Q      6.650000   16.060000   10.690000
  Q      7.280000   16.310000   10.150000
  Q      4.010000   19.120000   11.220000
  Q      3.690000   19.940000   12.440000
  Q      3.550000   19.360000   11.860000
  Q     15.410000    3.600000   10.510000
  Q     15.880000    2.170000   10.970000
  Q     15.340000    2.830000   10.890000
  Q      2.690000   16.900000   13.540000
  Q      2.240000   18.220000   13.050000
  Q      2.160000   17.400000   13.150000
  Q     11.590000   18.380000    7.130000
  Q     11.340000   19.730000    6.570000
  Q     11.110000   18.960000    6.780000
  Q     17.700000   11.410000   17.370000
  Q     17.100000   11.290000   15.860000
  Q     17.700000   11.370000   16.510000
  Q     10.420000    8.420000   17.090000
  Q     11.330000    7.800000   18.060000
  Q     10.730000    7.770000   17.500000
  Q      8.040000    8.670000    1.040000
  Q      9.440000    8.310000    1.670000
  Q      8.820000    8.810000    1.400000
  Q      1.280000   10.580000   16.330000
  Q      2.280000    9.690000   15.510000
  Q      1.790000   10.350000   15.680000
  Q      7.220000   16.360000    4.260000
  Q      6.020000   15.640000    3.680000
  Q      6.470000   15.980000    4.300000
  Q     17.140000    7.550000    7.150000
  Q     17.960000    7.090000    5.870000
  Q     17.460000    7.590000    6.360000
  Q      3.400000   17.780000    6.860000
  Q      3.650000   18.220000    5.350000
  Q      3.220000   17.920000    6.030000
  Q      5.350000   14.230000   16.150000
  Q      4.320000   13.220000   15.490000
  Q      4.590000   13.880000   15.980000
  Q      2.600000    9.260000   11.110000
  Q      1.260000    9.690000   11.700000
  Q      1.760000    9.240000   11.220000
  Q      7.020000   18.090000   12.810000
  Q      7.170000   17.580000   14.290000
  Q      6.910000   17.530000   13.460000
  Q      3.030000    6.900000    8.190000
  Q      2.450000    8.340000    7.600000
  Q      3.020000    7.650000    7.710000
  Q      7.690000   18.800000    8.880000
  Q      7.650000   20.350000    8.430000
  Q      7.550000   19.660000    8.970000
  Q     11.680000   15.880000    4.810000
  Q     10.340000   15.690000    3.970000
  Q     10.980000   15.510000    4.540000
  Q     17.950000   17.910000    6.320000
  Q     18.220000   16.530000    6.810000
  Q     17.890000   17.290000    6.870000
  Q     11.560000   16.690000   15.410000
  Q     10.730000   17.950000   15.250000
  Q     11.250000   17.450000   15.630000
  Q      2.950000   11.680000   14.970000
  Q      2.850000   12.670000   13.760000
  Q      3.270000   12.230000   14.390000
  Q     15.450000    6.350000    4.900000
  Q     13.850000    6.240000    4.650000
  Q     14.660000    6.560000    4.590000
  Q     14.830000   16.100000   18.420000
  Q     15.330000   16.040000   17.020000
  Q     15.060000   15.710000   17.750000
  Q     13.310000    4.960000   13.390000
  Q     11.830000    4.550000   13.000000
  Q     12.470000    5.010000   13.320000
  Q      6.330000    2.210000   11.720000
  Q      6.000000    1.010000   10.800000
  Q      6.450000    1.430000   11.410000
  Q      2.490000   20.210000    7.820000
  Q      3.640000   19.450000    8.470000
  Q      3.130000   20.110000    8.380000
  Q     13.990000    2.570000   13.910000
  Q     14.620000    3.220000   12.690000
  Q     14.480000    3.150000   13.520000
  Q     10.700000    4.470000    9.380000
  Q     11.330000    5.390000   10.390000
  Q     10.920000    4.670000   10.130000
  Q     12.460000   17.490000    9.650000
  Q     12.770000   18.390000   10.980000
  Q     12.410000   18.150000   10.210000
  Q      3.420000   15.830000    6.150000
  Q      4.240000   14.750000    5.390000
  Q      3.770000   15.040000    6.020000
  Q     12.010000    2.630000   10.010000
  Q     13.460000    2.280000   10.540000
  Q     12.680000    2.140000   10.130000
  Q     11.070000    6.560000    1.060000
  Q     11.680000    6.650000    2.510000
  Q     11.080000    6.630000    1.920000
  Q      7.300000   21.860000   14.700000
  Q      6.500000   20.590000   14.490000
  Q      7.030000   21.100000   14.930000
  Q      3.670000   17.330000    9.330000
  Q      4.990000   17.600000    8.500000
  Q      4.170000   17.700000    8.740000
  Q     17.380000   11.900000   19.750000
  Q     16.640000   10.630000   19.770000
  Q     17.120000   11.200000   19.390000
  Q     10.960000   15.380000   16.950000
  Q     10.330000   16.010000   18.240000
  Q     10.460000   15.420000   17.640000
  Q      2.040000    4.780000    8.390000
  Q      2.630000    5.130000    9.810000
  Q      2.340000    5.280000    9.030000
  Q     20.010000   16.020000   17.890000
  Q     18.830000   15.380000   18.620000
  Q     19.200000   15.880000   18.080000
  Q      4.110000    6.530000    4.670000
  Q      3.820000    6.570000    6.100000
  Q      3.940000    6.190000    5.390000
  Q      1.360000   14.860000   13.350000
  Q      0.660000   14.070000   14.470000
  Q      1.030000   14.160000   13.710000
  Q     17.860000    4.760000   14.920000
  Q     18.210000    6.340000   14.740000
  Q     18.110000    5.570000   15.160000
  Q     10.140000   11.610000    2.620000
  Q     10.540000   13.100000    3.120000
  Q     10.100000   12.340000    3.090000
  Q     12.570000    2.670000   16.070000
  Q     12.140000    3.710000   14.930000
  Q     12.120000    3.290000   15.670000
  Q      5.980000    8.790000   16.780000
  Q      7.130000    7.920000   16.590000
  Q      6.760000    8.610000   16.870000
  Q     10.510000    3.210000   11.980000
  Q      9.830000    3.670000   13.360000
  Q     10.410000    3.290000   12.830000
  Q     13.170000   14.780000   16.080000
  Q     12.070000   14.030000   15.420000
  Q     12.510000   14.710000   15.600000
  Q      1.730000    9.360000    1.700000
  Q      2.290000   10.380000    2.660000
  Q      2.360000    9.760000    2.070000
  Q     16.040000   16.940000    7.850000
  Q     15.260000   16.010000    8.880000
  Q     15.390000   16.690000    8.350000
  Q     16.610000   10.390000    4.450000
  Q     15.460000    9.780000    3.770000
  Q     16.100000   10.280000    3.790000
  Q     17.470000   11.910000   12.320000
  Q     18.330000   12.100000   11.150000
  Q     18.150000   12.170000   11.970000
  Q     11.920000    1.910000    7.850000
  Q     12.280000    3.280000    7.250000
  Q     12.290000    2.430000    7.260000
  Q      7.960000    2.400000   14.770000
  Q      6.980000    3.080000   13.750000
  Q      7.220000    2.710000   14.490000
  Q     21.020000   10.780000    8.110000
  Q     20.370000   11.450000    6.820000
  Q     20.720000   11.430000    7.610000
  Q     10.550000   10.530000   19.750000
  Q     11.900000   10.120000   18.920000
  Q     11.200000   10.600000   19.200000
  Q      5.050000   16.560000   14.010000
  Q      4.190000   15.570000   14.750000
  Q      4.390000   16.310000   14.450000
  Q     12.880000   20.140000    4.460000
  Q     13.010000   18.590000    4.000000
  Q     12.970000   19.470000    3.900000
  Q     14.380000   18.750000   12.470000
  Q     13.490000   17.520000   12.780000
  Q     13.680000   18.330000   12.710000
  Q     21.570000   13.220000    8.500000
  Q     20.870000   13.910000    9.830000
  Q     21.390000   13.800000    9.110000
  Q     14.590000    5.860000    2.730000
  Q     13.560000    5.050000    1.940000
  Q     14.120000    5.660000    2.050000
  Q      7.800000   11.460000   18.650000
  Q      7.000000   10.170000   18.520000
  Q      7.470000   10.750000   18.920000
  Q     16.190000   19.490000   11.000000
  Q     15.600000   18.280000   10.090000
  Q     15.750000   18.750000   10.820000
  Q      6.170000    6.820000    1.750000
  Q      7.160000    5.720000    1.690000
  Q      6.430000    6.030000    1.880000
  Q     10.860000   18.100000   18.560000
  Q     10.990000   17.370000   19.970000
  Q     10.660000   17.520000   19.160000
  Q     11.230000   20.870000   10.890000
  Q      9.870000   20.220000   10.570000
  Q     10.440000   20.880000   10.610000
  Q      9.250000    4.270000    4.700000
  Q      9.220000    4.060000    3.100000
  Q      9.570000    4.220000    3.860000
  Q     20.150000   13.170000   12.040000
  Q     21.510000   13.700000   12.510000
  Q     20.990000   13.220000   12.030000
  Q     19.310000   12.040000    8.820000
  Q     17.810000   11.950000    8.860000
  Q     18.550000   12.080000    9.210000
  Q     15.920000    3.210000    5.940000
  Q     16.520000    4.460000    5.600000
  Q     16.030000    3.970000    6.070000
  Q     13.410000    9.300000    3.750000
  Q     13.950000    8.170000    2.870000
  Q     13.740000    8.960000    3.070000
  Q     11.680000   20.100000   13.830000
  Q     12.510000   20.730000   12.720000
  Q     11.920000   20.730000   13.340000
  Q      3.120000   15.170000   11.670000
  Q      4.420000   14.290000   11.560000
  Q      3.700000   14.570000   11.920000
  Q     18.850000   14.710000   13.760000
  Q     18.570000   16.110000   13.120000
  Q     18.990000   15.370000   13.220000
  Q      1.390000   12.930000   10.360000
  Q      2.650000   13.220000   11.060000
  Q      2.170000   12.760000   10.570000
  Q     13.810000    9.960000   -0.230000
  Q     13.100000    9.490000    1.040000
  Q     13.140000    9.680000    0.230000
  Q      6.860000   16.070000   16.700000
  Q      7.550000   14.680000   16.810000
  Q      6.970000   15.230000   16.540000
  Q     10.090000    3.020000    7.150000
  Q      9.630000    4.500000    7.000000
  Q     10.040000    3.830000    7.370000
  Q      4.250000   18.250000   15.650000
  Q      3.050000   18.460000   16.510000
  Q      3.620000   18.690000   15.960000
  Q     16.700000   17.540000   12.170000
  Q     16.570000   17.110000   13.720000
  Q     16.920000   17.190000   12.920000
  Q      6.650000   12.200000    3.020000
  Q      8.230000   12.400000    2.750000
  Q      7.410000   12.130000    2.590000
  Q     13.190000   13.210000    3.890000
  Q     12.140000   13.820000    4.830000
  Q     12.750000   13.290000    4.600000
  Q      4.310000    4.580000   11.590000
  Q      3.400000    5.710000   12.040000
  Q      3.600000    5.010000   11.620000
  Q     18.840000   16.760000    9.820000
  Q     18.440000   17.580000    8.770000
  Q     18.780000   17.500000    9.490000
  Q     14.410000   11.110000   15.440000
  Q     15.270000    9.980000   14.910000
  Q     15.080000   10.790000   15.000000
  Q     20.040000    8.980000   14.430000
  Q     19.350000    9.400000   15.770000
  Q     19.730000    8.850000   15.210000
  Q      6.770000   21.320000    6.860000
  Q      7.570000   22.510000    7.660000
  Q      7.450000   21.760000    7.230000
  Q      8.040000    0.630000   12.100000
  Q      9.520000    0.010000   12.090000
  Q      8.730000    0.140000   12.410000
  Q     20.130000    6.110000    9.380000
  Q     19.470000    5.960000   10.850000
  Q     19.520000    6.050000    9.980000
  Q     17.410000    5.820000   11.680000
  Q     17.020000    4.420000   12.170000
  Q     16.920000    5.150000   11.780000
  Q     11.370000   10.400000   -0.060000
  Q      9.960000    9.960000    0.640000
  Q     10.550000   10.450000    0.240000
  Q      1.300000    9.680000    9.180000
  Q      1.570000   10.650000    8.090000
  Q      1.370000    9.890000    8.390000
  Q      4.780000   20.430000    6.300000
  Q      5.520000   19.130000    6.770000
  Q      5.310000   19.760000    6.240000
  Q      6.280000    3.780000    2.610000
  Q      6.240000    3.260000    4.020000
  Q      6.320000    3.180000    3.180000
  Q     13.630000    4.300000   16.300000
  Q     14.960000    4.770000   16.940000
  Q     14.270000    4.860000   16.460000
  Q      3.960000    5.850000   18.320000
  Q      3.380000    7.370000   18.270000
  Q      3.960000    6.740000   18.280000
  Q     12.980000   15.440000   12.360000
  Q     13.190000   15.470000   13.870000
  Q     13.400000   15.630000   13.070000
  Q      6.930000   19.890000   10.960000
  Q      7.380000   20.430000   12.190000
  Q      6.940000   19.890000   11.750000
  Q      7.260000   17.290000    6.830000
  Q      6.070000   16.730000    6.190000
  Q      6.470000   17.160000    6.800000
  Q      3.990000    8.180000   16.050000
  Q      4.680000    9.350000   15.090000
  Q      4.420000    8.960000   15.830000
  Q     17.740000    6.880000    9.240000
  Q     16.790000    7.930000    9.770000
  Q     17.070000    7.380000    9.230000
  Q      7.490000    5.110000    6.110000
  Q      8.610000    6.100000    5.960000
  Q      8.290000    5.340000    6.170000
  Q      8.520000    5.570000   12.920000
  Q      8.030000    4.940000   14.250000
  Q      8.270000    4.940000   13.430000
  Q      0.660000    5.640000   10.480000
  Q      0.400000    7.060000   11.120000
  Q      0.360000    6.220000   11.050000
  Q      3.160000   13.870000   17.260000
  Q      2.930000   12.540000   17.980000
  Q      2.770000   13.380000   17.800000
  Q     13.110000   19.540000    8.990000
  Q     13.970000   20.790000    8.670000
  Q     13.580000   20.050000    8.480000
  Q      8.250000    5.990000   16.540000
  Q      9.020000    6.680000   15.410000
  Q      8.350000    6.330000   15.780000
  Q     13.650000    7.770000   19.200000
  Q     12.540000    8.170000   20.320000
  Q     12.860000    8.000000   19.500000
  Q     15.240000   12.550000    1.410000
  Q     15.080000   11.850000    2.690000
  Q     14.980000   12.490000    2.190000
  Q      2.830000   11.960000    4.090000
  Q      1.490000   12.500000    4.400000
  Q      2.040000   12.170000    3.890000
  Q     10.330000    0.350000    8.680000
  Q      9.180000    1.270000    8.480000
  Q      9.940000    0.980000    8.340000
  Q     20.490000   13.610000   16.080000
  Q     21.570000   13.110000   16.980000
  Q     21.240000   13.620000   16.430000
  Q      6.980000   14.000000    5.320000
  Q      6.620000   13.080000    6.570000
  Q      6.590000   13.370000    5.710000
  Q      3.040000    3.270000   12.160000
  Q      2.340000    2.250000   13.170000
  Q      2.680000    2.540000   12.410000
  Q     11.710000   14.570000   19.180000
  Q     12.820000   13.720000   19.670000
  Q     12.140000   14.200000   19.760000
  Q      2.560000    7.760000   12.340000
  Q      2.700000    7.340000   13.820000
  Q      2.940000    7.410000   13.010000
  Q      8.560000   15.800000    2.310000
  Q      9.090000   17.130000    2.740000
  Q      8.820000   16.360000    2.870000
  Q     20.770000    9.980000   12.620000
  Q     19.310000   10.690000   12.540000
  Q     19.890000   10.060000   12.470000
  Q      6.550000    4.490000   17.630000
  Q      6.660000    3.680000   16.260000
  Q      6.320000    4.240000   16.860000
  Q      2.530000   13.080000    8.550000
  Q      2.380000   13.450000    7.140000
  Q      2.350000   12.930000    7.760000
  Q     18.150000   14.560000    9.820000
  Q     18.920000   15.050000   11.160000
  Q     18.780000   14.900000   10.310000
  Q     14.430000   12.300000   18.210000
  Q     14.970000   13.780000   18.450000
  Q     14.630000   13.010000   18.670000

----------------------------
CARTESIAN COORDINATES (A.U.)
----------------------------
  NO LB      ZA    FRAG     MASS         X           Y           Z
   0 C     6.0000    0    12.011   22.449946   22.072001   21.618467
   1 H     1.0000    0     1.008   22.903481   23.224734   20.012200
   2 H     1.0000    0     1.008   22.676714   19.898816   21.164933
   3 C     6.0000    0    12.011   19.728741   22.487741   22.393255
   4 H     1.0000    0     1.008   19.256309   20.843679   23.564885
   5 H     1.0000    0     1.008   19.388590   24.094008   23.621577
   6 C     6.0000    0    12.011   17.895706   22.468844   20.106686
   7 H     1.0000    0     1.008   18.613802   23.602679   18.519316
   8 H     1.0000    0     1.008   16.308337   23.621577   20.598015
   9 C     6.0000    0    12.011   16.856357   19.936611   19.275207
  10 H     1.0000    0     1.008   15.250090   19.993302   17.914604
  11 H     1.0000    0     1.008   15.911494   18.935056   20.862577
  12 O     8.0000    0    15.999   18.878364   18.500419   18.065782
  13 H     1.0000    0     1.008   17.914604   16.950843   17.309891
  14 O     8.0000    0    15.999   23.980625   22.790097   23.734960
  15 H     1.0000    0     1.008   25.794762   22.733405   23.224734
  16 O     8.0000    0    15.999   24.094008   18.953953   16.875254
  17 H     1.0000    0     1.008   22.393255   18.424830   17.404378
  18 H     1.0000    0     1.008   25.322330   18.198063   18.065782
  19 O     8.0000    0    15.999   13.681617   19.917713   26.399474
  20 H     1.0000    0     1.008   14.683172   18.557111   25.794762
  21 H     1.0000    0     1.008   12.377706   20.560220   25.208947
  22 O     8.0000    0    15.999   25.265638   25.775864   16.119364
  23 H     1.0000    0     1.008   26.172707   26.550652   14.683172
  24 H     1.0000    0     1.008   23.867241   24.831001   15.439063
  25 O     8.0000    0    15.999   16.346131   15.042220   15.023323
  26 H     1.0000    0     1.008   15.212295   16.119364   14.135151
  27 H     1.0000    0     1.008   15.646932   13.983973   16.383926
  28 O     8.0000    0    15.999   16.100467   24.207392   28.062433
  29 H     1.0000    0     1.008   15.136706   22.601125   27.646693
  30 H     1.0000    0     1.008   15.457960   25.416817   26.853008
  31 O     8.0000    0    15.999   16.043775   24.301878   33.391461
  32 H     1.0000    0     1.008   15.817008   24.339673   31.652913
  33 H     1.0000    0     1.008   17.631145   25.057769   33.712714
  34 O     8.0000    0    15.999   11.206076   16.024878   20.957063
  35 H     1.0000    0     1.008   10.091138   17.461069   20.786987
  36 H     1.0000    0     1.008   11.073795   15.344576   22.620022
  37 O     8.0000    0    15.999   23.923933   28.704940   20.031097
  38 H     1.0000    0     1.008   24.585337   27.741180   18.670494
  39 H     1.0000    0     1.008   22.223179   28.780529   19.483076
  40 O     8.0000    0    15.999   28.686043   26.890803   12.245425
  41 H     1.0000    0     1.008   27.514413   25.889248   11.262768
  42 H     1.0000    0     1.008   29.063988   28.440378   11.281665
  43 O     8.0000    0    15.999   11.697405   12.396603   17.196508
  44 H     1.0000    0     1.008   11.621816   12.963521   15.495754
  45 H     1.0000    0     1.008   11.168281   13.795001   18.405933
  46 O     8.0000    0    15.999   13.549336   19.029542   11.602918
  47 H     1.0000    0     1.008   13.851693   18.273652    9.996651
  48 H     1.0000    0     1.008   14.777658   20.427940   11.735199
  49 O     8.0000    0    15.999   20.371248   13.587131   11.886377
  50 H     1.0000    0     1.008   19.086234   14.494199   12.831240
  51 H     1.0000    0     1.008   21.675159   13.398158   13.058008
  52 O     8.0000    0    15.999   17.668939   18.802775   30.897022
  53 H     1.0000    0     1.008   17.668939   19.728741   32.427700
  54 H     1.0000    0     1.008   15.911494   18.273652   30.537974
  55 O     8.0000    0    15.999   22.166488   13.795001   19.861022
  56 H     1.0000    0     1.008   20.749193   14.645378   20.484631
  57 H     1.0000    0     1.008   23.489296   14.361919   20.938166
  58 O     8.0000    0    15.999   29.082885   17.876809   19.974405
  59 H     1.0000    0     1.008   29.876570   19.142926   21.070446
  60 H     1.0000    0     1.008   28.610454   16.421720   21.013755
  61 O     8.0000    0    15.999   29.782084   27.268748   18.500419
  62 H     1.0000    0     1.008   29.574214   27.495515   20.257864
  63 H     1.0000    0     1.008   28.723837   25.794762   18.198063
  64 O     8.0000    0    15.999   10.809233   24.131803   15.117809
  65 H     1.0000    0     1.008    9.089583   24.604234   14.513097
  66 H     1.0000    0     1.008   10.922617   22.336563   15.495754
  67 O     8.0000    0    15.999   17.309891   27.627796   14.777658
  68 H     1.0000    0     1.008   17.083124   29.271858   13.983973
  69 H     1.0000    0     1.008   18.027987   26.399474   13.587131
  70 O     8.0000    0    15.999   15.798110   27.949050   23.678268
  71 H     1.0000    0     1.008   14.399713   27.608899   22.563330
  72 H     1.0000    0     1.008   15.741419   29.612009   24.396364
  73 O     8.0000    0    15.999   29.082885   22.204282   23.394810
  74 H     1.0000    0     1.008   28.704940   22.053104   25.227844
  75 H     1.0000    0     1.008   29.309652   24.075111   23.186940
  76 O     8.0000    0    15.999   18.916159   29.196269   19.180720
  77 H     1.0000    0     1.008   17.933501   28.421481   20.616912
  78 H     1.0000    0     1.008   18.632700   28.138022   17.725631
  79 O     8.0000    0    15.999   17.120919   16.005980   24.282981
  80 H     1.0000    0     1.008   16.478412   14.947734   22.922378
  81 H     1.0000    0     1.008   18.254754   14.872145   25.208947
  82 O     8.0000    0    15.999   21.920823   22.468844   13.719412
  83 H     1.0000    0     1.008   22.790097   22.846789   12.169836
  84 H     1.0000    0     1.008   22.620022   20.919268   14.456405
  85 O     8.0000    0    15.999   16.157158   11.754097   20.730296
  86 H     1.0000    0     1.008   14.494199   11.602918   19.917713
  87 H     1.0000    0     1.008   17.120919   10.639158   19.709844
  88 O     8.0000    0    15.999   23.848344   16.554001   24.793207
  89 H     1.0000    0     1.008   22.147590   16.308337   25.473508
  90 H     1.0000    0     1.008   24.169597   18.254754   24.434159
  91 O     8.0000    0    15.999   23.886138   31.709605   14.116254
  92 H     1.0000    0     1.008   25.473508   32.125344   14.853247
  93 H     1.0000    0     1.008   23.262529   30.178926   14.758761
  94 O     8.0000    0    15.999   11.924172   26.248296   20.616912
  95 H     1.0000    0     1.008   11.187179   24.774310   21.599570
  96 H     1.0000    0     1.008   11.810788   25.832556   18.840570
  97 O     8.0000    0    15.999   21.410597   23.262529   28.270303
  98 H     1.0000    0     1.008   22.034207   22.997967   26.550652
  99 H     1.0000    0     1.008   19.690946   23.262529   28.119125
 100 O     8.0000    0    15.999    9.788781   22.090899   23.375912
 101 H     1.0000    0     1.008    8.711637   22.790097   24.698721
 102 H     1.0000    0     1.008    8.692740   21.391700   22.034207
 103 O     8.0000    0    15.999   29.838776   21.599570   15.571343
 104 H     1.0000    0     1.008   28.232508   22.279871   15.042220
 105 H     1.0000    0     1.008   29.309652   20.087789   16.270542
 106 O     8.0000    0    15.999   10.015549   18.179165   15.363473
 107 H     1.0000    0     1.008    8.579357   17.309891   14.702069
 108 H     1.0000    0     1.008   11.281665   18.481522   14.078460
 109 Q     0.6645    0     0.000   35.640235   16.024878   23.054659
 110 Q     0.6645    0     0.000   33.145796   14.588686   24.150700
 111 Q    -1.3290    0     0.000   34.638680   14.739864   23.489296
 112 Q     0.6645    0     0.000   15.457960    5.877048   15.703624
 113 Q     0.6645    0     0.000   13.114699    5.385719   17.083124
 114 Q    -1.3290    0     0.000   14.456405    4.988877   16.402823
 115 Q     0.6645    0     0.000   37.246502   19.747638    7.766774
 116 Q     0.6645    0     0.000   35.715824   20.919268    9.864370
 117 Q    -1.3290    0     0.000   36.981940   20.749193    8.938405
 118 Q     0.6645    0     0.000   14.909939   11.357254   35.451262
 119 Q     0.6645    0     0.000   15.930391    8.692740   35.545749
 120 Q    -1.3290    0     0.000   15.514652   10.072240   34.827653
 121 Q     0.6645    0     0.000   40.043297   12.245425   13.662720
 122 Q     0.6645    0     0.000   42.084201   13.454850   15.250090
 123 Q    -1.3290    0     0.000   40.572420   13.076905   14.872145
 124 Q     0.6645    0     0.000   22.487741   10.072240   35.848105
 125 Q     0.6645    0     0.000   19.823227   10.582466   35.073317
 126 Q    -1.3290    0     0.000   20.957063    9.750987   35.753618
 127 Q     0.6645    0     0.000   26.947495   15.892597   10.469083
 128 Q     0.6645    0     0.000   24.717618   16.818563   12.018658
 129 Q    -1.3290    0     0.000   25.889248   16.950843   10.998206
 130 Q     0.6645    0     0.000   17.366583   31.671810   10.412391
 131 Q     0.6645    0     0.000   18.141371   33.939481   12.018658
 132 Q    -1.3290    0     0.000   17.234302   32.597776   11.678508
 133 Q     0.6645    0     0.000    9.618706    8.976199   17.328789
 134 Q     0.6645    0     0.000    8.484870    6.311685   16.686282
 135 Q    -1.3290    0     0.000    9.656501    7.426624   17.064227
 136 Q     0.6645    0     0.000   39.041742   30.613563   26.493960
 137 Q     0.6645    0     0.000   41.706256   31.785194   26.267193
 138 Q    -1.3290    0     0.000   40.213372   31.615118   26.796317
 139 Q     0.6645    0     0.000   34.109557   12.642268   31.955269
 140 Q     0.6645    0     0.000   34.789858   14.720967   34.071762
 141 Q    -1.3290    0     0.000   33.958379   13.454850   33.410358
 142 Q     0.6645    0     0.000   16.591795   12.377706    7.048678
 143 Q     0.6645    0     0.000   13.662720   12.169836    7.275446
 144 Q    -1.3290    0     0.000   15.136706   12.642268    7.691185
 145 Q     0.6645    0     0.000   32.578879   26.191604   13.946179
 146 Q     0.6645    0     0.000   35.300084   26.191604   14.985528
 147 Q    -1.3290    0     0.000   34.109557   26.720728   14.116254
 148 Q     0.6645    0     0.000   13.889487   18.387035    5.631384
 149 Q     0.6645    0     0.000   13.700514   15.892597    6.784117
 150 Q    -1.3290    0     0.000   13.133597   17.253200    6.425069
 151 Q     0.6645    0     0.000   12.339912   34.090659   32.937927
 152 Q     0.6645    0     0.000   13.795001   35.224495   30.821433
 153 Q    -1.3290    0     0.000   12.887932   34.204043   31.482837
 154 Q     0.6645    0     0.000   34.525296   28.156919   30.500180
 155 Q     0.6645    0     0.000   33.599331   25.265638   29.895467
 156 Q    -1.3290    0     0.000   34.355221   26.720728   29.649803
 157 Q     0.6645    0     0.000   25.832556   35.867002   27.306543
 158 Q     0.6645    0     0.000   24.131803   35.111112   29.612009
 159 Q    -1.3290    0     0.000   25.435714   35.829207   28.856118
 160 Q     0.6645    0     0.000   24.944385   15.741419   28.610454
 161 Q     0.6645    0     0.000   25.870351   14.399713   31.218276
 162 Q    -1.3290    0     0.000   25.397919   15.590241   30.235618
 163 Q     0.6645    0     0.000    6.973089   16.024878    5.442411
 164 Q     0.6645    0     0.000    9.713192   15.911494    6.198302
 165 Q    -1.3290    0     0.000    8.258103   15.325679    6.009329
 166 Q     0.6645    0     0.000   12.566679   13.246980   27.287645
 167 Q     0.6645    0     0.000   10.166727   12.623371   25.700275
 168 Q    -1.3290    0     0.000   11.602918   13.284775   26.040426
 169 Q     0.6645    0     0.000    4.232987   32.371009   21.202727
 170 Q     0.6645    0     0.000    3.269226   31.652913   18.632700
 171 Q    -1.3290    0     0.000    4.251884   31.596221   19.842124
 172 Q     0.6645    0     0.000   16.346131   32.484392   37.208708
 173 Q     0.6645    0     0.000   15.684727   31.199378   39.892119
 174 Q    -1.3290    0     0.000   15.609138   32.314317   38.682694
 175 Q     0.6645    0     0.000   36.377228   28.251406   11.980864
 176 Q     0.6645    0     0.000   38.682694   29.101782   10.223418
 177 Q    -1.3290    0     0.000   37.303194   29.215166   11.036001
 178 Q     0.6645    0     0.000    8.371487   19.558665   17.952398
 179 Q     0.6645    0     0.000    6.179404   21.127138   19.029542
 180 Q    -1.3290    0     0.000    7.275446   20.031097   19.048439
 181 Q     0.6645    0     0.000   24.415262   24.698721    3.571582
 182 Q     0.6645    0     0.000   21.939720   25.567995    1.965315
 183 Q    -1.3290    0     0.000   23.054659   25.549097    3.174740
 184 Q     0.6645    0     0.000   29.423036   29.763187    5.404617
 185 Q     0.6645    0     0.000   29.234063   26.871906    5.782562
 186 Q    -1.3290    0     0.000   29.328550   28.459276    6.254994
[...]
 359   Q   :    0.283157583   -0.023996616    0.018541287
 360   Q   :   -0.194304592   -0.149372598   -0.104664243
 361   Q   :   -0.080363160    0.183668021    0.077549127
 362   Q   :   -0.047906260    0.262328461    0.094166724
 363   Q   :   -0.154283076   -0.121195206   -0.199351065
 364   Q   :    0.192069883   -0.142284788    0.099126670
 365   Q   :   -0.211201466    0.018903390   -0.198902613
 366   Q   :    0.167959364   -0.224099375    0.009378776
 367   Q   :    0.039434422    0.219081214    0.189044703
 368   Q   :   -0.168073295   -0.199898169    0.120279861
 369   Q   :    0.034438096    0.018747606   -0.271093295
 370   Q   :    0.131488834    0.178878907    0.164971829
 371   Q   :   -0.081568224   -0.060014626   -0.290554458
 372   Q   :    0.118017556    0.215273358    0.063815485
 373   Q   :   -0.032565330   -0.156993582    0.231869690
 374   Q   :    0.022610118   -0.210272751   -0.176246912
 375   Q   :    0.105742138    0.068300072    0.216095691
 376   Q   :   -0.129956638    0.137993706   -0.047479987
 377   Q   :   -0.101299210    0.237356411    0.031838485
 378   Q   :    0.162291901   -0.090150879   -0.235503453
 379   Q   :   -0.056111765   -0.147948014    0.200251861
 380   Q   :   -0.234918522    0.182869093   -0.035666045
 381   Q   :    0.209131436    0.051491336    0.126368013
 382   Q   :    0.020109812   -0.240073007   -0.090007924
 383   Q   :    0.003108707   -0.024126501   -0.278962919
 384   Q   :    0.213613559    0.000481091    0.193382900
 385   Q   :   -0.214736964    0.018162033    0.083205054
 386   Q   :    0.088806110    0.268449124   -0.105618259
 387   Q   :   -0.169840209   -0.154462705   -0.164535950
 388   Q   :    0.079793798   -0.110668289    0.271665929
 389   Q   :   -0.147750780   -0.121405749    0.181535002
 390   Q   :    0.251800054   -0.032350303   -0.068895698
 391   Q   :   -0.096900070    0.147218557   -0.104331699
 392   Q   :    0.085032498    0.244835447    0.148562330
 393   Q   :   -0.165132269   -0.190898980    0.152309504
 394   Q   :    0.068172017   -0.052344557   -0.293653544
 395   Q   :    0.173316896   -0.004862088   -0.224326257
 396   Q   :   -0.034004023    0.182093455    0.188593648
 397   Q   :   -0.147755933   -0.183878773    0.025242497
 398   Q   :   -0.091514280   -0.173130606   -0.195781538
 399   Q   :    0.089154106   -0.063320160    0.248865429
 400   Q   :   -0.007131708    0.228445934   -0.060917095
 401   Q   :    0.280404757    0.040907911   -0.052668790
 402   Q   :   -0.119879985   -0.183005415    0.199084409
 403   Q   :   -0.151515628    0.143525158   -0.140030899
 404   Q   :    0.076741221    0.134893470   -0.257457270
 405   Q   :   -0.026493100    0.151880640    0.260248945
 406   Q   :   -0.053822718   -0.289656227   -0.000333291
 407   Q   :    0.106970128    0.236928621   -0.109818521
 408   Q   :   -0.124322496   -0.017919478    0.260581763
 409   Q   :    0.013412971   -0.215925456   -0.149598000
 410   Q   :   -0.082447726   -0.247672558   -0.091738362
 411   Q   :    0.017928009    0.225591693   -0.135663597
 412   Q   :    0.062551738    0.014237816    0.220949875
 413   Q   :    0.014086111   -0.224378986   -0.148465457
 414   Q   :    0.124309024    0.229067132    0.006899598
 415   Q   :   -0.130149638   -0.007883812    0.146839253
 416   Q   :    0.171628262   -0.197449618    0.120206201
 417   Q   :    0.030527481    0.128046114   -0.243789679
 418   Q   :   -0.211266842    0.065013134    0.125499246
 419   Q   :   -0.293200978    0.055775341   -0.033580290
 420   Q   :    0.117142256   -0.247202774   -0.106921071
 421   Q   :    0.178388818    0.187549957    0.150690143
 422   Q   :    0.029405683   -0.018653167   -0.276060623
 423   Q   :   -0.169724543    0.119332148    0.157703549
 424   Q   :    0.136804309   -0.120816907    0.122992537
 425   Q   :    0.246326529    0.016216251    0.179911328
 426   Q   :   -0.138765459   -0.227525359   -0.050517826
 427   Q   :   -0.101601705    0.208450227   -0.123310517
 428   Q   :   -0.242752812   -0.138950757   -0.123923022
 429   Q   :   -0.036813186    0.186489415    0.190433376
 430   Q   :    0.275419458   -0.046731444   -0.074137565
 431   Q   :    0.203887149    0.070852156   -0.157579397
 432   Q   :   -0.043245812   -0.197364286    0.152152267
 433   Q   :   -0.160182249    0.130147466    0.003166156
 434   Q   :    0.160308559    0.025223142    0.218893168
 435   Q   :   -0.239987226   -0.194740305    0.013491947
 436   Q   :    0.087614005    0.165067949   -0.235484561
 437   Q   :   -0.265776541   -0.115661786    0.124599934
 438   Q   :    0.043072897   -0.039902871   -0.254219361
 439   Q   :    0.215701931    0.161713592    0.141234320
 440   Q   :   -0.120155656   -0.143873272    0.188369386
 441   Q   :   -0.008437899    0.291069914    0.007541166
 442   Q   :    0.136528051   -0.148695170   -0.190313943
 443   Q   :    0.256962647   -0.092369682    0.092750430
 444   Q   :   -0.072076539    0.120981693   -0.233049732
 445   Q   :   -0.185711023   -0.039352400    0.136648156
 446   Q   :    0.097298350   -0.209864055    0.143352703
 447   Q   :   -0.113218023   -0.004749175   -0.244001810
 448   Q   :    0.025885006    0.205506185    0.096148736
 449   Q   :   -0.219597113   -0.034812246    0.196766870
 450   Q   :    0.197988468   -0.148970052   -0.071970365
 451   Q   :    0.022114905    0.188073072   -0.122067343
 452   Q   :    0.231301455    0.072179253   -0.155061351
 453   Q   :   -0.067393035   -0.273194235    0.096906392
 454   Q   :   -0.162874990    0.196486351    0.058000309
 455   Q   :   -0.032378561    0.203774412    0.190063885
 456   Q   :    0.003974451   -0.255186959    0.040290550
 457   Q   :    0.024667890    0.056974364   -0.232109788
 458   Q   :    0.226474576    0.137795204   -0.068103893
 459   Q   :   -0.059951972   -0.266802639    0.018789128
 460   Q   :   -0.171773145    0.137065730    0.052956977
 461   Q   :    0.056383321   -0.196584885   -0.198525271
 462   Q   :   -0.152838285    0.017692474    0.198181267
 463   Q   :    0.101281990    0.184514372    0.002107318
 464   Q   :    0.150582143    0.050567480    0.228421634
 465   Q   :   -0.206704853   -0.225434302   -0.022273882
 466   Q   :    0.057673239    0.169681733   -0.216287792
 467   Q   :    0.110621650    0.234351648   -0.102295495
 468   Q   :   -0.157755512   -0.187172716   -0.137280699
 469   Q   :    0.038728024   -0.039124720    0.238131301
 470   Q   :    0.131285526    0.230352764    0.050810987
 471   Q   :   -0.040063197   -0.128497050   -0.215516320
 472   Q   :   -0.091352848   -0.096149834    0.154920668
 473   Q   :   -0.056724020    0.280822481   -0.051019308
 474   Q   :    0.294801083   -0.101635778   -0.074734160
 475   Q   :   -0.241156590   -0.176387877    0.119346779
 476   Q   :    0.076524636    0.194195452   -0.186598743
 477   Q   :    0.108611107   -0.035933725    0.232779129
 478   Q   :   -0.174212129   -0.140747932   -0.037509022
 479   Q   :    0.294108155   -0.020260926    0.104226398
 480   Q   :   -0.163219001   -0.204770183   -0.005428822
 481   Q   :   -0.124258268    0.230472734   -0.100138159
 482   Q   :   -0.094425875    0.008418850    0.219205242
 483   Q   :   -0.128211084   -0.049303764   -0.260594229
 484   Q   :    0.217786624    0.038678597    0.040362127
 485   Q   :   -0.286956770   -0.005791398    0.016717885
 486   Q   :    0.162844704    0.166227804    0.172677233
 487   Q   :    0.132318328   -0.157901268   -0.187602264
 488   Q   :    0.222801492   -0.004447179   -0.135600229
 489   Q   :   -0.259928706   -0.045140053   -0.143372223
 490   Q   :    0.035824153    0.052979073    0.271204875
 491   Q   :   -0.027983299   -0.335855535   -0.077811870
 492   Q   :    0.180650746    0.162808609   -0.180877499
 493   Q   :   -0.151940874    0.173195141    0.251498565
 494   Q   :   -0.117946886    0.113597824    0.240824037
 495   Q   :    0.066259994   -0.272514508   -0.060786132
 496   Q   :    0.047057001    0.158402622   -0.186934706
 497   Q   :   -0.073671759   -0.238710326    0.168377923
 498   Q   :    0.202474454   -0.015982853   -0.213946993
 499   Q   :   -0.128196090    0.257053279    0.044375042
 500   Q   :   -0.175743238    0.170145821   -0.085711431
 501   Q   :    0.225473937   -0.097173264   -0.132449868
 502   Q   :   -0.046705291   -0.072246818    0.234162478
 503   Q   :   -0.050030770   -0.200187695    0.163979353
 504   Q   :   -0.134122232    0.221146082   -0.022224409
 505   Q   :    0.192325060   -0.027741420   -0.144437647
 506   Q   :   -0.283966205    0.078388576   -0.072677366
 507   Q   :    0.156419915    0.167169366    0.165420681
 508   Q   :    0.114560014   -0.247781848   -0.089783657
 509   Q   :    0.230073715    0.096937799   -0.139320640
 510   Q   :   -0.002850258   -0.059689769    0.281360821
 511   Q   :   -0.219004365   -0.041427584   -0.147007102
 512   Q   :   -0.026345665    0.260271878    0.065246372
 513   Q   :    0.203403561   -0.179750410    0.094676998
 514   Q   :   -0.167494118   -0.079460365   -0.155544258
 515   Q   :    0.002082453   -0.270410721   -0.086939189
 516   Q   :   -0.114953725    0.188504356   -0.110816422
 517   Q   :    0.122883600    0.077307168    0.193062108
 518   Q   :    0.225476540   -0.167441752   -0.098312481
 519   Q   :   -0.208651564   -0.104183752    0.212340981
 520   Q   :   -0.016658603    0.275437701   -0.110315035
 521   Q   :   -0.079699188    0.110493577   -0.233583294
 522   Q   :   -0.111726784   -0.025799254    0.229137047
 523   Q   :    0.189522544   -0.078308989   -0.000069860
 524   Q   :   -0.220962611    0.033922839    0.142368444
 525   Q   :    0.231654317    0.090653101    0.059315322
 526   Q   :   -0.017944788   -0.114927714   -0.210036873
 527   Q   :    0.151022890   -0.018223291   -0.252493248
 528   Q   :   -0.203774249    0.181210519    0.077881587
 529   Q   :    0.056652423   -0.171470127    0.167497734
 530   Q   :    0.239198747   -0.143638400   -0.010174256
 531   Q   :   -0.051487513    0.231653788    0.141151843
 532   Q   :   -0.193128554   -0.082297246   -0.135575950
 533   Q   :    0.005388926   -0.278810936    0.106506701
 534   Q   :   -0.144198083    0.010540009   -0.281943861
 535   Q   :    0.139979177    0.279016549    0.183201222
 536   Q   :   -0.198700006    0.087397634    0.123640332
 537   Q   :    0.047894930   -0.273957887   -0.025631305
 538   Q   :    0.150411207    0.184207106   -0.095925273
 539   Q   :    0.105515295    0.058528513   -0.266364838
 540   Q   :   -0.121355897    0.177018030    0.157805636
 541   Q   :    0.026075028   -0.238681491    0.108594863
 542   Q   :   -0.206468501   -0.114984557   -0.096215268
 543   Q   :    0.022408569    0.240135807    0.138016076
 544   Q   :    0.186219831   -0.108920424   -0.048108016
 545   Q   :   -0.164081311    0.134634658   -0.093634952
 546   Q   :    0.265176168   -0.036028593   -0.122421864
 547   Q   :   -0.087910959   -0.103390265    0.219320937
 548   Q   :    0.203545676    0.012083550   -0.186374932
 549   Q   :   -0.007226191   -0.034723148    0.271348278
 550   Q   :   -0.193260063    0.012836511   -0.077158087
 551   Q   :    0.178952367    0.223982022   -0.021359804
 552   Q   :    0.047793200   -0.257401561    0.153998782
 553   Q   :   -0.220125582    0.027834872   -0.137080951
 554   Q   :    0.241599321   -0.015726512   -0.090929224
 555   Q   :   -0.167274816   -0.157595469    0.126489357
 556   Q   :   -0.072860825    0.185525527   -0.046753591
 557   Q   :   -0.022327966   -0.055615713    0.290945114
 558   Q   :    0.071035831    0.263117924   -0.088495926
 559   Q   :   -0.058827117   -0.205017223   -0.201082891
 560   Q   :   -0.176574453    0.224130355    0.031618395
 561   Q   :    0.054200303   -0.197983739    0.191930143
 562   Q   :    0.120134109   -0.024463869   -0.224714815
 563   Q   :   -0.008111004    0.235949301   -0.197102312
 564   Q   :   -0.025265202    0.050410723    0.278237213
 565   Q   :    0.036764360   -0.292225258   -0.084721419
 566   Q   :   -0.176807992   -0.188971291   -0.039600578
 567   Q   :    0.236032797   -0.046050442    0.170679412
 568   Q   :   -0.056115248    0.228148460   -0.117313350
 569   Q   :   -0.018104881   -0.267133477    0.007789812
 570   Q   :   -0.208528104    0.202250315   -0.004658842
 571   Q   :    0.226622320    0.066353612   -0.000175130
 572   Q   :   -0.142876685   -0.064083680   -0.206660656
 573   Q   :   -0.076493049   -0.053713518    0.259384352
 574   Q   :    0.210220493    0.124822075   -0.041783035
 575   Q   :    0.003765365    0.019380244   -0.311810049
 576   Q   :    0.168037689    0.208680504    0.155091145
 577   Q   :   -0.178576501   -0.218971359    0.161495542
 578   Q   :    0.306783847    0.043531178    0.003232942
 579   Q   :   -0.122827079   -0.140295386   -0.201794498
 580   Q   :   -0.187849215    0.091319063    0.204471481
 581   Q   :   -0.105457774   -0.193007166    0.046287871
 582   Q   :    0.070082123    0.114019966   -0.233673569
 583   Q   :    0.032904293    0.087150340    0.177056157
 584   Q   :    0.218720362   -0.174493143    0.004119716
 585   Q   :   -0.094936072    0.190846524    0.211591503
 586   Q   :   -0.127551136   -0.004171516   -0.207246996
 587   Q   :   -0.274759866   -0.060233362   -0.024214676
 588   Q   :    0.094609126    0.248828366   -0.062220399
 589   Q   :    0.170194082   -0.169934609    0.090712373
 590   Q   :    0.083465399    0.219620812   -0.153752885
 591   Q   :   -0.077766862    0.004052104    0.258062620
 592   Q   :   -0.003817127   -0.220920906   -0.100940519
 593   Q   :    0.101148681   -0.177786874   -0.187851040
 594   Q   :    0.022154595    0.295962060    0.014704987
 595   Q   :   -0.126800311   -0.122787231    0.176085259
 596   Q   :    0.144242296    0.170749153   -0.189257531
 597   Q   :    0.054998780   -0.245908237    0.036737795
 598   Q   :   -0.218087786    0.083345017    0.158618463
 599   Q   :   -0.142014865   -0.144864805    0.171069207
 600   Q   :    0.126189529    0.250089462    0.082583357
 601   Q   :    0.022963319   -0.097145414   -0.257616448
 602   Q   :   -0.025977976   -0.102155783    0.252446394
 603   Q   :    0.224723689    0.119086808   -0.118259344
 604   Q   :   -0.197163627   -0.013684313   -0.136095723
 605   Q   :    0.237066267   -0.071425925   -0.086298297
 606   Q   :   -0.080668164    0.047943327    0.239526792
 607   Q   :   -0.156467932    0.023358410   -0.147162644
 608   Q   :    0.098684618    0.009937220   -0.290195347
 609   Q   :    0.032310228   -0.232517471    0.165837246
 610   Q   :   -0.131213673    0.217424313    0.114432532
 611   Q   :    0.260814247   -0.069476549    0.088933888
 612   Q   :   -0.197415435    0.124820399    0.214959994
 613   Q   :   -0.071631995   -0.047479556   -0.301777783
 614   Q   :    0.139718916   -0.248404590    0.144329059
 615   Q   :   -0.267638553    0.089368841    0.060738320
 616   Q   :    0.131424858    0.147627787   -0.205604976
 617   Q   :   -0.275121521   -0.022156335   -0.116076666
 618   Q   :    0.111501182   -0.208776259    0.216130132
 619   Q   :    0.168605593    0.230387326   -0.100230471
 620   Q   :    0.150272355    0.223083124   -0.134713314
 621   Q   :    0.021937599   -0.070444512    0.212404024
 622   Q   :   -0.153307728   -0.144872167   -0.075680712
 623   Q   :    0.122502744    0.240462312   -0.063865345
 624   Q   :   -0.101228766   -0.073917518    0.249135575
 625   Q   :   -0.019789891   -0.176089841   -0.180246148
 626   Q   :   -0.153027999    0.137609094   -0.229179477
 627   Q   :    0.230386958   -0.158817473   -0.043967771
 628   Q   :   -0.063100281    0.026286132    0.272855687
 629   Q   :   -0.129334500    0.118940668   -0.217203525
 630   Q   :   -0.093431744   -0.013244487    0.267905761
 631   Q   :    0.222726072   -0.097787339   -0.046520073
 632   Q   :   -0.089585395   -0.188270266   -0.208892957
 633   Q   :    0.096850829    0.275785438   -0.060667591
 634   Q   :   -0.011446906   -0.086063190    0.257931465
 635   Q   :    0.249989151   -0.024700257    0.050386462
 636   Q   :   -0.177153033    0.189961869    0.029691598
 637   Q   :   -0.063853099   -0.162812987   -0.071188371
 638   Q   :    0.079899672    0.073647910    0.272150915
 639   Q   :    0.098781618   -0.158564246   -0.159080137
 640   Q   :   -0.177736876    0.090196617   -0.095073203
 641   Q   :    0.072324285    0.074038800    0.282332489
 642   Q   :    0.012426827    0.211268477   -0.226384120
 643   Q   :   -0.089036864   -0.283182723   -0.062067966
 644   Q   :   -0.203601010   -0.106501804   -0.146399368
 645   Q   :    0.028161573    0.042698815    0.253131253
 646   Q   :    0.175700039    0.054356031   -0.114046179
 647   Q   :   -0.053472470   -0.212803313   -0.147538723
 648   Q   :    0.106184710    0.223348449   -0.066394599
 649   Q   :   -0.051121402   -0.021709807    0.203509379

Difference to translation invariance:
           :   -0.0000313825    0.0004796900    0.0001574332

Difference to rotation invariance:
           :   -0.0042313588   -0.0041125493    0.0152289831

Norm of the cartesian gradient     ...    6.3461095028
RMS gradient                       ...    0.1438217556
MAX gradient                       ...    0.3358555346

-------
TIMINGS
-------

Total SCF gradient time            ...      225.619 sec

One electron gradient       ....      27.903 sec  ( 12.4%)
RI-J Coulomb gradient       ....      11.797 sec  (  5.2%)
COSX gradient               ....     142.724 sec  ( 63.3%)
XC gradient                 ....      17.411 sec  (  7.7%)

Maximum memory used throughout the entire SCFGRAD-calculation: 854.2 MB

                            ***************************************
                            *     ORCA property calculations      *
                            ***************************************

                                    ---------------------
                                    Active property flags
                                    ---------------------
   (+) Dipole Moment


------------------------------------------------------------------------------
                       ORCA ELECTRIC PROPERTIES CALCULATION
------------------------------------------------------------------------------

Dipole Moment Calculation                       ... on
Quadrupole Moment Calculation                   ... off
Polarizability Calculation                      ... off
GBWName                                         ... final094.orca.gbw
Electron density                                ... final094.orca.scfp
The origin for moment calculation is the CENTER OF MASS  = (19.351679, 21.384242 19.995653)

-------------
DIPOLE MOMENT
-------------
                                X             Y             Z
Electronic contribution:      2.26460      -0.77208      -0.23066
Nuclear contribution   :      0.72739      -7.54529      -2.17540
                        -----------------------------------------
Total Dipole Moment    :      2.99199      -8.31737      -2.40606
                        -----------------------------------------
Magnitude (a.u.)       :      9.16078
Magnitude (Debye)      :     23.28484



--------------------
Rotational spectrum 
--------------------
 
Rotational constants in cm-1:     0.001926     0.001542     0.001391 
Rotational constants in MHz :    57.740740    46.227573    41.714527 

 Dipole components along the rotational axes: 
x,y,z [a.u.] :    -0.351634    -5.074201    -7.618968 
x,y,z [Debye]:    -0.893782   -12.897595   -19.365876 

 

Timings for individual modules:

Sum of individual times         ...      999.539 sec (=  16.659 min)
GTO integral calculation        ...       13.972 sec (=   0.233 min)   1.4 %
SCF iterations                  ...      755.889 sec (=  12.598 min)  75.6 %
SCF Gradient evaluation         ...      229.678 sec (=   3.828 min)  23.0 %
                             ****ORCA TERMINATED NORMALLY****
TOTAL RUN TIME: 0 days 0 hours 16 minutes 48 seconds 129 msec
