
                                 *****************
                                 * O   R   C   A *
                                 *****************

                                            #,                                       
                                            ###                                      
                                            ####                                     
                                            #####                                    
                                            ######                                   
                                           ########,                                 
                                     ,,################,,,,,                         
                               ,,#################################,,                 
                          ,,##########################################,,             
                       ,#########################################, ''#####,          
                    ,#############################################,,   '####,        
                  ,##################################################,,,,####,       
                ,###########''''           ''''###############################       
              ,#####''   ,,,,##########,,,,          '''####'''          '####       
            ,##' ,,,,###########################,,,                        '##       
           ' ,,###''''                  '''############,,,                           
         ,,##''                                '''############,,,,        ,,,,,,###''
      ,#''                                            '''#######################'''  
     '                                                          ''''####''''         
             ,#######,   #######,   ,#######,      ##                                
            ,#'     '#,  ##    ##  ,#'     '#,    #''#        ######   ,####,        
            ##       ##  ##   ,#'  ##            #'  '#       #        #'  '#        
            ##       ##  #######   ##           ,######,      #####,   #    #        
            '#,     ,#'  ##    ##  '#,     ,#' ,#      #,         ##   #,  ,#        
             '#######'   ##     ##  '#######'  #'      '#     #####' # '####'        



                  #######################################################
                  #                        -***-                        #
                  #          Department of theory and spectroscopy      #
                  #    Directorship and core code : Frank Neese         #
                  #        Max Planck Institute fuer Kohlenforschung    #
                  #                Kaiser Wilhelm Platz 1               #
                  #                 D-45470 Muelheim/Ruhr               #
                  #                      Germany                        #
                  #                                                     #
                  #                  All rights reserved                #
                  #                        -***-                        #
                  #######################################################


                         Program Version 5.0.3 -  RELEASE  -


 With contributions from (in alphabetic order):
   Daniel Aravena         : Magnetic Suceptibility
   Michael Atanasov       : Ab Initio Ligand Field Theory (pilot matlab implementation)
   Alexander A. Auer      : GIAO ZORA, VPT2 properties, NMR spectrum
   Ute Becker             : Parallelization
   Giovanni Bistoni       : ED, misc. LED, open-shell LED, HFLD
   Martin Brehm           : Molecular dynamics
   Dmytro Bykov           : SCF Hessian
   Vijay G. Chilkuri      : MRCI spin determinant printing, contributions to CSF-ICE
   Dipayan Datta          : RHF DLPNO-CCSD density
   Achintya Kumar Dutta   : EOM-CC, STEOM-CC
   Dmitry Ganyushin       : Spin-Orbit,Spin-Spin,Magnetic field MRCI
   Miquel Garcia          : C-PCM and meta-GGA Hessian, CC/C-PCM, Gaussian charge scheme
   Yang Guo               : DLPNO-NEVPT2, F12-NEVPT2, CIM, IAO-localization
   Andreas Hansen         : Spin unrestricted coupled pair/coupled cluster methods
   Benjamin Helmich-Paris : MC-RPA, TRAH-SCF, COSX integrals
   Lee Huntington         : MR-EOM, pCC
   Robert Izsak           : Overlap fitted RIJCOSX, COSX-SCS-MP3, EOM
   Marcus Kettner         : VPT2
   Christian Kollmar      : KDIIS, OOCD, Brueckner-CCSD(T), CCSD density, CASPT2, CASPT2-K
   Simone Kossmann        : Meta GGA functionals, TD-DFT gradient, OOMP2, MP2 Hessian
   Martin Krupicka        : Initial AUTO-CI
   Lucas Lang             : DCDCAS
   Marvin Lechner         : AUTO-CI (C++ implementation), FIC-MRCC
   Dagmar Lenk            : GEPOL surface, SMD
   Dimitrios Liakos       : Extrapolation schemes; Compound Job, initial MDCI parallelization
   Dimitrios Manganas     : Further ROCIS development; embedding schemes
   Dimitrios Pantazis     : SARC Basis sets
   Anastasios Papadopoulos: AUTO-CI, single reference methods and gradients
   Taras Petrenko         : DFT Hessian,TD-DFT gradient, ASA, ECA, R-Raman, ABS, FL, XAS/XES, NRVS
   Peter Pinski           : DLPNO-MP2, DLPNO-MP2 Gradient
   Christoph Reimann      : Effective Core Potentials
   Marius Retegan         : Local ZFS, SOC
   Christoph Riplinger    : Optimizer, TS searches, QM/MM, DLPNO-CCSD(T), (RO)-DLPNO pert. Triples
   Tobias Risthaus        : Range-separated hybrids, TD-DFT gradient, RPA, STAB
   Michael Roemelt        : Original ROCIS implementation
   Masaaki Saitow         : Open-shell DLPNO-CCSD energy and density
   Barbara Sandhoefer     : DKH picture change effects
   Avijit Sen             : IP-ROCIS
   Kantharuban Sivalingam : CASSCF convergence, NEVPT2, FIC-MRCI
   Bernardo de Souza      : ESD, SOC TD-DFT
   Georgi Stoychev        : AutoAux, RI-MP2 NMR, DLPNO-MP2 response
   Willem Van den Heuvel  : Paramagnetic NMR
   Boris Wezisla          : Elementary symmetry handling
   Frank Wennmohs         : Technical directorship


 We gratefully acknowledge several colleagues who have allowed us to
 interface, adapt or use parts of their codes:
   Stefan Grimme, W. Hujo, H. Kruse, P. Pracht,  : VdW corrections, initial TS optimization,
                  C. Bannwarth, S. Ehlert          DFT functionals, gCP, sTDA/sTD-DF
   Ed Valeev, F. Pavosevic, A. Kumar             : LibInt (2-el integral package), F12 methods
   Garnet Chan, S. Sharma, J. Yang, R. Olivares  : DMRG
   Ulf Ekstrom                                   : XCFun DFT Library
   Mihaly Kallay                                 : mrcc  (arbitrary order and MRCC methods)
   Jiri Pittner, Ondrej Demel                    : Mk-CCSD
   Frank Weinhold                                : gennbo (NPA and NBO analysis)
   Christopher J. Cramer and Donald G. Truhlar   : smd solvation model
   Lars Goerigk                                  : TD-DFT with DH, B97 family of functionals
   V. Asgeirsson, H. Jonsson                     : NEB implementation
   FAccTs GmbH                                   : IRC, NEB, NEB-TS, DLPNO-Multilevel, CI-OPT
                                                   MM, QMMM, 2- and 3-layer-ONIOM, Crystal-QMMM,
                                                   LR-CPCM, SF, NACMEs, symmetry and pop. for TD-DFT,
                                                   nearIR, NL-DFT gradient (VV10), updates on ESD,
                                                   ML-optimized integration grids
   S Lehtola, MJT Oliveira, MAL Marques          : LibXC Library
   Liviu Ungur et al                             : ANISO software


 Your calculation uses the libint2 library for the computation of 2-el integrals
 For citations please refer to: http://libint.valeyev.net

 Your ORCA version has been built with support for libXC version: 5.1.0
 For citations please refer to: https://tddft.org/programs/libxc/

 This ORCA versions uses:
   CBLAS   interface :  Fast vector & matrix operations
   LAPACKE interface :  Fast linear algebra routines
   SCALAPACK package :  Parallel linear algebra routines
   Shared memory     :  Shared parallel matrices
   BLAS/LAPACK       :  OpenBLAS 0.3.15  USE64BITINT DYNAMIC_ARCH NO_AFFINITY SkylakeX SINGLE_THREADED
        Core in use  :  SkylakeX
   Copyright (c) 2011-2014, The OpenBLAS Project


================================================================================

----- Orbital basis set information -----
Your calculation utilizes the basis: def2-SVP
   F. Weigend and R. Ahlrichs, Phys. Chem. Chem. Phys. 7, 3297 (2005).

The basis set includes element-specific modifications.

Your calculation utilizes the basis: aug-cc-pVTZ 
    H, B-Ne : Obtained from the ccRepo (grant-hill.group.shef.ac.uk/ccrepo) Feb. 2017
              R. A. Kendall, T. H. Dunning, Jr., R. J. Harrison, J. Chem. Phys. 96, 6796 (1992)
         He : Obtained from the ccRepo (grant-hill.group.shef.ac.uk/ccrepo) Feb. 2017
              D. E. Woon, T. H. Dunning, Jr., J. Chem. Phys. 100, 2975 (1994)
  Li-Be, Na : Obtained from the ccRepo (grant-hill.group.shef.ac.uk/ccrepo) Feb. 2017
              B. P. Prascher, D. E. Woon, K. A. Peterson, T. H. Dunning, Jr., A. K. Wilson, Theor. Chem. Acc. 128, 69 (2011)
         Mg : Obtained from the Peterson Research Group Website (tyr0.chem.wsu.edu/~kipeters) Feb. 2017
              B. P. Prascher, D. E. Woon, K. A. Peterson, T. H. Dunning, Jr., A. K. Wilson, Theor. Chem. Acc. 128, 69 (2011)
      Al-Ar : Obtained from the ccRepo (grant-hill.group.shef.ac.uk/ccrepo) Feb. 2017
              D. E. Woon, T. H. Dunning, Jr., J. Chem. Phys. 98, 1358 (1993)
      Sc-Zn : Obtained from the ccRepo (grant-hill.group.shef.ac.uk/ccrepo) Feb. 2017
              N. B. Balabanov, K. A. Peterson, J. Chem. Phys. 123, 064107 (2005)
              N. B. Balabanov, K. A. Peterson, J. Chem. Phys. 125, 074110 (2006)
      Ga-Kr : Obtained from the ccRepo (grant-hill.group.shef.ac.uk/ccrepo) Feb. 2017
              A. K. Wilson, D. E. Woon, K. A. Peterson, T. H. Dunning, Jr., J. Chem. Phys. 110, 7667 (1999)
     Ag, Au : Obtained from the Peterson Research Group Website (tyr0.chem.wsu.edu/~kipeters) Feb. 2017
              K. A. Peterson, C. Puzzarini, Theor. Chem. Acc. 114, 283 (2005)

Your calculation utilizes the basis: cc-pVTZ 
       H, B-Ne : Obtained from the ccRepo (grant-hill.group.shef.ac.uk/ccrepo) Feb. 2017
                 T. H. Dunning, Jr., J. Chem. Phys. 90, 1007 (1989)
            He : Obtained from the ccRepo (grant-hill.group.shef.ac.uk/ccrepo) Feb. 2017
                 D. E. Woon, T. H. Dunning, Jr., J. Chem. Phys. 100, 2975 (1994)
  Li-Be, Na-Mg : Obtained from the ccRepo (grant-hill.group.shef.ac.uk/ccrepo) Feb. 2017
                 B. P. Prascher, D. E. Woon, K. A. Peterson, T. H. Dunning, Jr., A. K. Wilson, Theor. Chem. Acc. 128, 69 (2011)
         Al-Ar : Obtained from the ccRepo (grant-hill.group.shef.ac.uk/ccrepo) Feb. 2017
                 D. E. Woon, T. H. Dunning, Jr., J. Chem. Phys. 98, 1358 (1993)
            Ca : Obtained from the Peterson Research Group Website (tyr0.chem.wsu.edu/~kipeters) Feb. 2017
                 J. Koput, K. A. Peterson, J. Phys. Chem. 106, 9595 (2002)
         Sc-Zn : Obtained from the ccRepo (grant-hill.group.shef.ac.uk/ccrepo) Feb. 2017
                 N. B. Balabanov, K. A. Peterson, J. Chem. Phys. 123, 064107 (2005)
                 N. B. Balabanov, K. A. Peterson, J. Chem. Phys. 125, 074110 (2006)
         Ga-Kr : Obtained from the ccRepo (grant-hill.group.shef.ac.uk/ccrepo) Feb. 2017
                 A. K. Wilson, D. E. Woon, K. A. Peterson, T. H. Dunning, Jr., J. Chem. Phys. 110, 7667 (1999)
             Y : Obtained from the ccRepo (grant-hill.group.shef.ac.uk/ccrepo) Feb. 2017
                 K. A. Peterson, D. Figgen, M. Dolg, H. Stoll, J. Chem. Phys. 126, 124101 (2007)
        Ag, Au : Obtained from the Peterson Research Group Website (tyr0.chem.wsu.edu/~kipeters) Feb. 2017
                 K. A. Peterson, C. Puzzarini, Theor. Chem. Acc. 114, 283 (2005)

----- AuxJ basis set information -----
Your calculation utilizes the auxiliary basis: def2/J
   F. Weigend, Phys. Chem. Chem. Phys. 8, 1057 (2006).

================================================================================
                                        WARNINGS
                       Please study these warnings very carefully!
================================================================================

WARNING: The globally-selected AuxJ basis set is optimized for use with ECPs
         Make sure a suitable alternative is explicitly given all heavy elements (Z>36)

INFO   : the flag for use of the SHARK integral package has been found!

================================================================================
                                       INPUT FILE
================================================================================
NAME = final009.orca.inp
|  1> ! NoMOPrint PrintBasis #MINIPRINT SMALLPRINT LARGEPRINT
|  2> ! ALLPOP XYZFILE
|  3> #! BP86 3-21G   TightSCF
|  4> ! ENGRAD
|  5> ! B3LYP NormalPNO PModel #DecontractAux
|  6> #! VerySlowConv 
|  7>  %maxcore 5000
|  8>  %scf  maxiter   500  end 
|  9> 
| 10> %pal
| 11>     nprocs 32
| 12> end
| 13> 
| 14> %basis
| 15>     NewGTO O    # New basis for oxygen
| 16>         "aug-cc-pVTZ"
| 17>     end
| 18>     NewGTO C    # New basis for carbon
| 19>         "aug-cc-pVTZ"
| 20>     end
| 21>     NewGTO H    # New basis for hydrogen
| 22>         "cc-pVTZ"
| 23>     end
| 24> end
| 25> 
| 26> * xyz 0   1
| 27>   C  10.07  10.34  11.94  #1
| 28>   H  10.6  9.79  11.15  #2
| 29>   H  9.08  10.69  11.64  #3
| 30>   C  10.83  11.51  12.39  #4
| 31>   H  10.23  12.16  12.93  #5
| 32>   H  11.58  11.21  13.1  #6
| 33>   C  11.47  12.11  11.1  #7
| 34>   H  12.59  12.04  11.11  #8
| 35>   H  11.28  13.17  11.16  #9
| 36>   C  11.04  11.47  9.75  #10
| 37>   H  9.98  11.6  9.51  #11
| 38>   H  11.22  10.37  9.62  #12
| 39>   O  11.79  12.08  8.65  #13
| 40>   H  12.63  11.51  8.62  #14
| 41>   O  9.91  9.46  13.09  #15
| 42>   H  9.84  8.55  12.85  #16
| 43>   O  7.71  12.82  13.18  #17
| 44>   H  8.55  13.27  13.01  #18
| 45>   H  7.49  12.42  12.33  #19
| 46>   O  8.56  10.62  7.23  #20
| 47>   H  8.89  10.23  8.07  #21
| 48>   H  8.32  11.52  7.37  #22
| 49>   O  8  13.45  8.21  #23
| 50>   H  8.78  13.79  8.61  #24
| 51>   H  7.49  13.27  8.99  #25
| 52>   O  9.17  6.3  12.96  #26
| 53>   H  8.38  6.84  12.88  #27
| 54>   H  9.26  6.02  13.88  #28
| 55>   O  10.56  6.2  10.45  #29
| 56>   H  10.31  5.44  9.88  #30
| 57>   H  9.98  6.09  11.18  #31
| 58>   O  6.88  9.76  9.39  #32
| 59>   H  6.98  9.6  8.45  #33
| 60>   H  7.02  8.86  9.64  #34
| 61>   O  6.5  12.46  10.34  #35
| 62>   H  6.53  11.47  10.39  #36
| 63>   H  5.78  12.74  10.97  #37
| 64>   O  7.09  7.07  10.4  #38
| 65>   H  6.96  6.95  11.33  #39
| 66>   H  6.77  6.35  9.82  #40
| 67>   O  13.26  7.19  10.12  #41
| 68>   H  12.53  6.7  10.43  #42
| 69>   H  14.1  6.68  9.96  #43
| 70>   O  11.2  10.2  5.93  #44
| 71>   H  10.28  10.29  6.25  #45
| 72>   H  11.84  10.12  6.66  #46
| 73>   O  6.66  7.87  13.13  #47
| 74>   H  6.2  8.53  12.59  #48
| 75>   H  6.17  7.06  13.1  #49
| 76>   O  14.44  11.58  8.08  #50
| 77>   H  14.44  11.68  7.11  #51
| 78>   H  14.47  12.49  8.41  #52
| 79>   O  12.67  8.57  7.83  #53
| 80>   H  13.52  8.94  7.54  #54
| 81>   H  12.83  8.07  8.64  #55
| 82>   O  12.12  15.41  13.22  #56
| 83>   H  11.59  14.74  12.83  #57
| 84>   H  13.05  15.11  13.13  #58
| 85>   O  9.76  4.65  8.45  #59
| 86>   H  9.77  3.69  8.45  #60
| 87>   H  9.91  5.01  7.56  #61
| 88>   O  12.85  9.37  15.61  #62
| 89>   H  11.92  9.57  15.5  #63
| 90>   H  12.87  9.35  16.62  #64
| 91>   O  6.31  15.71  10.89  #65
| 92>   H  6.03  16.42  10.32  #66
| 93>   H  7.05  15.26  10.44  #67
| 94>   O  9.89  15.22  9.3  #68
| 95>   H  9.43  15.92  8.83  #69
| 96>   H  10.82  15.47  9.03  #70
| 97>   O  9.86  8.52  8.71  #71
| 98>   H  10.72  8.65  8.3  #72
| 99>   H  10.07  7.9  9.42  #73
|100>   O  9.61  14.58  12.2  #74
|101>   H  9.63  15.34  12.71  #75
|102>   H  9.73  14.9  11.34  #76
|103>   O  11.42  3.69  12.17  #77
|104>   H  11.54  4.14  11.35  #78
|105>   H  12.18  3.98  12.74  #79
|106>   O  10.09  10.23  15.58  #80
|107>   H  10.46  11.1  15.78  #81
|108>   H  9.92  10.15  14.62  #82
|109>   O  6.25  15.5  14.39  #83
|110>   H  6.69  14.76  13.97  #84
|111>   H  5.43  15.19  14.86  #85
|112>   O  6.14  12.01  15.16  #86
|113>   H  6.37  11.12  15.37  #87
|114>   H  6.72  12.26  14.5  #88
|115>   O  9.06  4.85  15.77  #89
|116>   H  9.57  4.1  15.51  #90
|117>   H  9.82  5.41  16.08  #91
|118>   O  11.71  13.62  6.24  #92
|119>   H  11.64  13.1  7.06  #93
|120>   H  11.22  13.15  5.57  #94
|121>   O  7.73  15.58  6.44  #95
|122>   H  7.81  14.71  6.7  #96
|123>   H  6.99  15.74  5.82  #97
|124>   Q  0.6645  12.48$  17.1$  12.67$
|125>   Q  0.6645  13.85$  17.6$  12.44$
|126>   Q  -1.3290  13.05$  17.66$  12.44$
|127>   Q  0.6645  6.01$  4.25$  13.38$
|128>   Q  0.6645  6.98$  4.6$  12.3$
|129>   Q  -1.3290  6.33$  4.73$  12.78$
|130>   Q  0.6645  16.99$  13.01$  16.62$
|131>   Q  0.6645  18.29$  13.46$  17.3$
|132>   Q  -1.3290  17.45$  13.43$  17.21$
|133>   Q  0.6645  20.55$  10.46$  7.07$
|134>   Q  0.6645  20.53$  8.97$  6.75$
|135>   Q  -1.3290  20.77$  9.64$  7.18$
|136>   Q  0.6645  7.88$  17.18$  7.51$
|137>   Q  0.6645  8.93$  18.13$  7.78$
|138>   Q  -1.3290  8.41$  17.55$  8.03$
|139>   Q  0.6645  10.92$  7.12$  17.42$
|140>   Q  0.6645  12.02$  6.47$  16.33$
|141>   Q  -1.3290  11.21$  6.69$  16.68$
|142>   Q  0.6645  18.7$  8.53$  17.09$
|143>   Q  0.6645  18.5$  7.62$  18.34$
|144>   Q  -1.3290  18.43$  8.35$  17.88$
|145>   Q  0.6645  12.36$  10.75$  4.17$
|146>   Q  0.6645  13.31$  11.15$  2.98$
|147>   Q  -1.3290  12.59$  10.79$  3.35$
|148>   Q  0.6645  17.66$  13.81$  5.25$
|149>   Q  0.6645  16.53$  12.82$  5.79$
|150>   Q  -1.3290  16.89$  13.46$  5.29$
|151>   Q  0.6645  1.11$  9.97$  15.67$
|152>   Q  0.6645  1.46$  8.44$  16$
|153>   Q  -1.3290  1.02$  9.19$  16.08$
|154>   Q  0.6645  7.49$  13.77$  20.25$
|155>   Q  0.6645  7.52$  15.01$  21.11$
|156>   Q  -1.3290  7.14$  14.46$  20.61$
|157>   Q  0.6645  2.9$  16.72$  8.92$
|158>   Q  0.6645  1.39$  16.96$  9$
|159>   Q  -1.3290  2.22$  17.1$  9.23$
|160>   Q  0.6645  2.67$  16.14$  12.49$
|161>   Q  0.6645  2.07$  15.59$  11.09$
|162>   Q  -1.3290  2.09$  15.81$  11.95$
|163>   Q  0.6645  4.28$  6.76$  17.88$
|164>   Q  0.6645  4.32$  5.29$  18.64$
|165>   Q  -1.3290  4.28$  5.88$  17.96$
|166>   Q  0.6645  15.17$  9.59$  13.3$
|167>   Q  0.6645  14.22$  10.22$  14.26$
|168>   Q  -1.3290  14.83$  10.26$  13.71$
|169>   Q  0.6645  15.75$  15.26$  14.71$
|170>   Q  0.6645  14.99$  16.43$  15.48$
|171>   Q  -1.3290  15.1$  15.72$  14.99$
|172>   Q  0.6645  4.82$  16.48$  17.37$
|173>   Q  0.6645  5.64$  17.25$  16.1$
|174>   Q  -1.3290  4.99$  16.84$  16.56$
|175>   Q  0.6645  11.77$  12.52$  19.3$
|176>   Q  0.6645  12.38$  12.15$  17.97$
|177>   Q  -1.3290  12.03$  12$  18.72$
|178>   Q  0.6645  1.86$  6.09$  15.42$
|179>   Q  0.6645  2.55$  6.53$  16.58$
|180>   Q  -1.3290  1.87$  6.45$  16.14$
|181>   Q  0.6645  8.43$  19.67$  6.46$
|182>   Q  0.6645  9.58$  19.57$  5.37$
|183>   Q  -1.3290  9.15$  19.33$  6.1$
|184>   Q  0.6645  10.28$  8.09$  19.31$
|185>   Q  0.6645  9.23$  6.77$  19.22$
|186>   Q  -1.3290  9.99$  7.2$  19.17$
|187>   Q  0.6645  18.01$  14.98$  8.1$
|188>   Q  0.6645  16.55$  15.18$  8.68$
|189>   Q  -1.3290  17.36$  15.37$  8.51$
|190>   Q  0.6645  20.74$  9.58$  9.27$
|191>   Q  0.6645  20.01$  9.2$  10.54$
|192>   Q  -1.3290  20.56$  9.69$  10.09$
|193>   Q  0.6645  4.18$  4.51$  12.01$
|194>   Q  0.6645  2.98$  3.98$  11.06$
|195>   Q  -1.3290  3.76$  4.32$  11.29$
|196>   Q  0.6645  14.53$  20.71$  6.03$
|197>   Q  0.6645  13.45$  20.28$  5.13$
|198>   Q  -1.3290  14.03$  20.15$  5.72$
|199>   Q  0.6645  18.57$  6.42$  9.19$
|200>   Q  0.6645  19.37$  5.3$  9.73$
|201>   Q  -1.3290  18.69$  5.7$  9.6$
|202>   Q  0.6645  1.49$  13.78$  10.25$
|203>   Q  0.6645  2.18$  14.29$  8.92$
|204>   Q  -1.3290  2.15$  14$  9.72$
|205>   Q  0.6645  1.14$  10.48$  13.5$
|206>   Q  0.6645  0.33$  11.78$  13.83$
|207>   Q  -1.3290  0.84$  11.09$  14$
|208>   Q  0.6645  11.03$  6.92$  4.59$
|209>   Q  0.6645  11.35$  8.55$  4.77$
|210>   Q  -1.3290  11.04$  7.8$  4.37$
|211>   Q  0.6645  16.01$  11.04$  14.82$
|212>   Q  0.6645  17.43$  11.09$  15.29$
|213>   Q  -1.3290  16.63$  11.33$  15.33$
|214>   Q  0.6645  4.22$  13.76$  13.71$
|215>   Q  0.6645  3.07$  14.37$  14.56$
|216>   Q  -1.3290  3.86$  14.11$  14.41$
|217>   Q  0.6645  1.22$  9.6$  7.21$
|218>   Q  0.6645  2.58$  9.89$  7.8$
|219>   Q  -1.3290  2.05$  9.63$  7.22$
|220>   Q  0.6645  2.74$  3.98$  14.06$
|221>   Q  0.6645  3.67$  5.22$  14.01$
|222>   Q  -1.3290  2.95$  4.81$  14.12$
|223>   Q  0.6645  8.36$  13.17$  18.26$
|224>   Q  0.6645  9.33$  13.57$  19.5$
|225>   Q  -1.3290  8.85$  13.08$  19.02$
|226>   Q  0.6645  13.65$  18.79$  15.96$
|227>   Q  0.6645  13.6$  17.86$  17.14$
|228>   Q  -1.3290  13.98$  18.39$  16.63$
|229>   Q  0.6645  8.67$  1.41$  13.6$
|230>   Q  0.6645  8.06$  0.04$  13.23$
|231>   Q  -1.3290  8.04$  0.87$  13.34$
|232>   Q  0.6645  8.05$  3.73$  16.99$
|233>   Q  0.6645  7.23$  3.22$  18.19$
|234>   Q  -1.3290  7.48$  3.25$  17.37$
|235>   Q  0.6645  8.93$  9.22$  21.43$
|236>   Q  0.6645  9.77$  8.11$  21.91$
|237>   Q  -1.3290  9.02$  8.45$  21.65$
|238>   Q  0.6645  7.06$  8.27$  15.92$
|239>   Q  0.6645  8.1$  9.35$  16.23$
|240>   Q  -1.3290  7.33$  9.03$  16.19$
|241>   Q  0.6645  3.19$  13.14$  17.34$
|242>   Q  0.6645  4.35$  12.85$  16.47$
|243>   Q  -1.3290  3.97$  12.9$  17.17$
|244>   Q  0.6645  17.16$  6.2$  15.86$
|245>   Q  0.6645  15.53$  6.51$  16.04$
|246>   Q  -1.3290  16.34$  6.11$  16.19$
|247>   Q  0.6645  10.89$  13.72$  3.43$
|248>   Q  0.6645  11.43$  12.19$  3.49$
|249>   Q  -1.3290  10.91$  12.89$  3.66$
|250>   Q  0.6645  8.18$  17.17$  15.98$
|251>   Q  0.6645  9.6$  16.84$  15.88$
|252>   Q  -1.3290  8.86$  16.78$  16.24$
|253>   Q  0.6645  12.12$  -0.53$  14.71$
|254>   Q  0.6645  10.98$  0.03$  15.72$
|255>   Q  -1.3290  11.57$  0.06$  15.08$
|256>   Q  0.6645  9.29$  11.47$  20.66$
|257>   Q  0.6645  8.59$  11.38$  22.04$
|258>   Q  -1.3290  9.04$  11.1$  21.41$
|259>   Q  0.6645  19.85$  15.82$  11.16$
|260>   Q  0.6645  18.73$  15.64$  10.09$
|261>   Q  -1.3290  19.28$  15.38$  10.68$
|262>   Q  0.6645  15.89$  2.7$  9.71$
|263>   Q  0.6645  14.84$  3.61$  10.4$
|264>   Q  -1.3290  15.62$  3.26$  10.29$
|265>   Q  0.6645  19.74$  11.15$  15.86$
|266>   Q  0.6645  19.78$  10.02$  14.92$
|267>   Q  -1.3290  19.4$  10.5$  15.45$
|268>   Q  0.6645  17.32$  8.77$  9.01$
|269>   Q  0.6645  16.91$  7.33$  8.62$
|270>   Q  -1.3290  17.41$  8.02$  8.61$
|271>   Q  0.6645  6.24$  4.36$  8.58$
|272>   Q  0.6645  7.77$  4.81$  8.58$
|273>   Q  -1.3290  6.93$  4.91$  8.45$
|274>   Q  0.6645  8.8$  16.2$  18.26$
|275>   Q  0.6645  9.38$  17.11$  19.3$
|276>   Q  -1.3290  8.99$  16.44$  19.04$
|277>   Q  0.6645  4.46$  15.37$  6.64$
|278>   Q  0.6645  4.59$  16.63$  5.6$
|279>   Q  -1.3290  4.39$  16.19$  6.34$
|280>   Q  0.6645  8.76$  18.24$  3.06$
|281>   Q  0.6645  8.77$  17.27$  4.27$
|282>   Q  -1.3290  8.51$  17.56$  3.51$
|283>   Q  0.6645  12.29$  16.55$  17.4$
|284>   Q  0.6645  11.76$  17.12$  18.78$
|285>   Q  -1.3290  12.31$  16.77$  18.24$
|286>   Q  0.6645  14.09$  18.59$  6.99$
|287>   Q  0.6645  13.57$  18.2$  8.33$
|288>   Q  -1.3290  14.1$  18.13$  7.69$
|289>   Q  0.6645  14.77$  12.12$  4.7$
|290>   Q  0.6645  13.52$  12.54$  5.54$
|291>   Q  -1.3290  14.21$  12.12$  5.37$
|292>   Q  0.6645  15.95$  6$  18.45$
|293>   Q  0.6645  15.18$  4.84$  19.08$
|294>   Q  -1.3290  15.53$  5.61$  19.06$
|295>   Q  0.6645  19.97$  9.82$  4.22$
|296>   Q  0.6645  20.43$  11.26$  4.38$
|297>   Q  -1.3290  20.12$  10.6$  3.97$
|298>   Q  0.6645  9.48$  6.27$  5.91$
|299>   Q  0.6645  9.38$  4.84$  5.18$
|300>   Q  -1.3290  9.76$  5.49$  5.6$
|301>   Q  0.6645  8.05$  7.37$  20.61$
|302>   Q  0.6645  7.76$  5.76$  20.81$
|303>   Q  -1.3290  7.76$  6.54$  20.43$
|304>   Q  0.6645  11.14$  15.32$  1.31$
|305>   Q  0.6645  12.29$  14.67$  0.7$
|306>   Q  -1.3290  11.49$  14.79$  0.76$
|307>   Q  0.6645  13.94$  10.72$  20.53$
|308>   Q  0.6645  15.16$  10.48$  19.41$
|309>   Q  -1.3290  14.74$  10.83$  20.14$
|310>   Q  0.6645  14.31$  7.07$  14.11$
|311>   Q  0.6645  13.49$  7.29$  15.46$
|312>   Q  -1.3290  13.86$  6.83$  14.86$
|313>   Q  0.6645  11.2$  14.41$  20.54$
|314>   Q  0.6645  11.91$  15.04$  19.36$
|315>   Q  -1.3290  11.55$  14.43$  19.77$
|316>   Q  0.6645  16.8$  5.71$  3.91$
|317>   Q  0.6645  18.08$  6.16$  3.17$
|318>   Q  -1.3290  17.58$  6$  3.84$
|319>   Q  0.6645  10.86$  19.42$  16.42$
|320>   Q  0.6645  11.79$  20.2$  17.42$
|321>   Q  -1.3290  11.05$  19.87$  17.11$
|322>   Q  0.6645  10.03$  19.99$  11.18$
|323>   Q  0.6645  10.58$  19.05$  9.99$
|324>   Q  -1.3290  10.02$  19.39$  10.56$
|325>   Q  0.6645  12.72$  9.71$  1.02$
|326>   Q  0.6645  11.82$  10.65$  0.25$
|327>   Q  -1.3290  12.56$  10.26$  0.43$
|328>   Q  0.6645  10.47$  19.77$  14.16$
|329>   Q  0.6645  9.63$  18.56$  13.91$
|330>   Q  -1.3290  10.03$  19.11$  14.42$
|331>   Q  0.6645  16.19$  16.56$  5.75$
|332>   Q  0.6645  17.34$  16.66$  6.64$
|333>   Q  -1.3290  16.97$  16.74$  5.92$
|334>   Q  0.6645  6.59$  13.36$  4.58$
|335>   Q  0.6645  5.21$  13.15$  5.06$
|336>   Q  -1.3290  5.86$  13.63$  4.85$
|337>   Q  0.6645  17.01$  10.86$  4.62$
|338>   Q  0.6645  16.86$  9.8$  5.7$
|339>   Q  -1.3290  16.96$  10.56$  5.4$
|340>   Q  0.6645  19.9$  12.57$  12.88$
|341>   Q  0.6645  21.25$  13.28$  12.55$
|342>   Q  -1.3290  20.64$  12.97$  13.04$
|343>   Q  0.6645  13.64$  14.55$  8.49$
|344>   Q  0.6645  14.32$  14.35$  9.9$
|345>   Q  -1.3290  14.23$  14.24$  9.04$
|346>   Q  0.6645  14.38$  5.09$  2.63$
|347>   Q  0.6645  14.75$  4.69$  4.05$
|348>   Q  -1.3290  14.65$  5.25$  3.44$
|349>   Q  0.6645  6.16$  3.05$  15.28$
|350>   Q  0.6645  6.63$  2.1$  14.18$
|351>   Q  -1.3290  6.12$  2.69$  14.55$
|352>   Q  0.6645  15.1$  9.87$  0.26$
|353>   Q  0.6645  14.98$  9.05$  1.44$
|354>   Q  -1.3290  15.38$  9.29$  0.76$
|355>   Q  0.6645  4.72$  3.48$  9.99$
|356>   Q  0.6645  4.72$  2.47$  8.75$
|357>   Q  -1.3290  5$  3.1$  9.27$
|358>   Q  0.6645  15.03$  16.33$  3.2$
|359>   Q  0.6645  16.31$  15.72$  2.57$
|360>   Q  -1.3290  15.56$  16.13$  2.57$
|361>   Q  0.6645  4.91$  11.94$  9.38$
|362>   Q  0.6645  3.46$  12.28$  9.19$
|363>   Q  -1.3290  4.17$  11.86$  9.04$
|364>   Q  0.6645  12.04$  15.86$  6.87$
|365>   Q  0.6645  12.96$  16.72$  7.71$
|366>   Q  -1.3290  12.38$  16.12$  7.59$
|367>   Q  0.6645  18.52$  12.97$  10.17$
|368>   Q  0.6645  19.48$  11.68$  10.16$
|369>   Q  -1.3290  18.85$  12.21$  9.89$
|370>   Q  0.6645  11.81$  1.68$  9.2$
|371>   Q  0.6645  13.32$  1.27$  8.86$
|372>   Q  -1.3290  12.54$  1.73$  8.82$
|373>   Q  0.6645  6.8$  12.38$  1.16$
|374>   Q  0.6645  7.67$  12.37$  2.41$
|375>   Q  -1.3290  7.42$  12.65$  1.66$
|376>   Q  0.6645  3.43$  12.58$  3.12$
|377>   Q  0.6645  4.24$  13.87$  3.24$
|378>   Q  -1.3290  3.67$  13.39$  2.88$
|379>   Q  0.6645  7.18$  5.83$  15.78$
|380>   Q  0.6645  5.82$  5.72$  16.37$
|381>   Q  -1.3290  6.42$  6.09$  15.94$
|382>   Q  0.6645  4.57$  9.82$  11.5$
|383>   Q  0.6645  4.69$  9.77$  12.89$
|384>   Q  -1.3290  4.96$  10.02$  12.15$
|385>   Q  0.6645  17.34$  13.27$  2.29$
|386>   Q  0.6645  18.1$  14.49$  2.9$
|387>   Q  -1.3290  17.6$  14.07$  2.34$
|388>   Q  0.6645  13.76$  17.52$  2.33$
|389>   Q  0.6645  12.89$  18.71$  3.01$
|390>   Q  -1.3290  13.13$  17.91$  2.76$
|391>   Q  0.6645  1.41$  5.81$  12.79$
|392>   Q  0.6645  1.1$  7.28$  12.31$
|393>   Q  -1.3290  0.95$  6.43$  12.45$
|394>   Q  0.6645  3.21$  16.34$  15.66$
|395>   Q  0.6645  2.23$  16.84$  14.48$
|396>   Q  -1.3290  2.45$  16.54$  15.26$
|397>   Q  0.6645  12.07$  16.26$  3.28$
|398>   Q  0.6645  11.19$  15.82$  4.49$
|399>   Q  -1.3290  11.55$  15.74$  3.71$
|400>   Q  0.6645  5.15$  7.24$  6.38$
|401>   Q  0.6645  3.75$  7.82$  6.72$
|402>   Q  -1.3290  4.6$  7.68$  6.85$
|403>   Q  0.6645  9.13$  2.05$  10.49$
|404>   Q  0.6645  9.44$  1.24$  9.3$
|405>   Q  -1.3290  9.66$  1.69$  9.93$
|406>   Q  0.6645  5.8$  14.88$  19.48$
|407>   Q  0.6645  4.98$  14.16$  18.47$
|408>   Q  -1.3290  5.23$  14.85$  18.85$
|409>   Q  0.6645  11.35$  3.91$  19.89$
|410>   Q  0.6645  11.13$  5.45$  19.74$
|411>   Q  -1.3290  11.48$  4.75$  20.07$
|412>   Q  0.6645  14.87$  7.29$  3.42$
|413>   Q  0.6645  14.2$  8.65$  3.85$
|414>   Q  -1.3290  14.74$  8.15$  3.43$
|415>   Q  0.6645  4.93$  16.6$  13.49$
|416>   Q  0.6645  4.51$  17.93$  12.81$
|417>   Q  -1.3290  4.44$  17.11$  13.02$
|418>   Q  0.6645  18.3$  8.13$  12.23$
|419>   Q  0.6645  17.96$  9.41$  11.29$
|420>   Q  -1.3290  18.43$  8.77$  11.62$
|421>   Q  0.6645  6.38$  19.51$  11.94$
|422>   Q  0.6645  5.63$  20.16$  13.03$
|423>   Q  -1.3290  6.14$  19.62$  12.75$
|424>   Q  0.6645  9.48$  17.99$  11.7$
|425>   Q  0.6645  8.4$  17.08$  12.2$
|426>   Q  -1.3290  9.15$  17.48$  12.27$
|427>   Q  0.6645  7.68$  3.73$  3.61$
|428>   Q  0.6645  6.95$  4.45$  4.71$
|429>   Q  -1.3290  7.6$  4.01$  4.41$
|430>   Q  0.6645  7.7$  9.06$  5.25$
|431>   Q  0.6645  8.85$  8.68$  4.42$
|432>   Q  -1.3290  8.15$  9.08$  4.57$
|433>   Q  0.6645  12.79$  2.99$  15.77$
|434>   Q  0.6645  12.48$  1.52$  15.88$
|435>   Q  -1.3290  12.76$  2.25$  16.15$
|436>   Q  0.6645  11.88$  6.93$  1.27$
|437>   Q  0.6645  10.81$  7.6$  2.37$
|438>   Q  -1.3290  11.11$  7.16$  1.64$
|439>   Q  0.6645  2.34$  15.18$  6.4$
|440>   Q  0.6645  2.79$  13.64$  6.61$
|441>   Q  -1.3290  2.4$  14.44$  6.82$
|442>   Q  0.6645  9.4$  -0.25$  17.49$
|443>   Q  0.6645  8.61$  1.01$  17.15$
|444>   Q  -1.3290  9.3$  0.56$  17.31$
|445>   Q  0.6645  8.26$  11.15$  4.21$
|446>   Q  0.6645  9.08$  12.53$  3.81$
|447>   Q  -1.3290  8.37$  12.01$  3.97$
|448>   Q  0.6645  19.94$  15.35$  16.19$
|449>   Q  0.6645  19.99$  14.06$  15.52$
|450>   Q  -1.3290  19.81$  14.85$  15.56$
|451>   Q  0.6645  4.97$  9.03$  18.63$
|452>   Q  0.6645  3.52$  9.06$  18.8$
|453>   Q  -1.3290  4.22$  8.77$  18.47$
|454>   Q  0.6645  13.18$  19.97$  9.66$
|455>   Q  0.6645  12.7$  18.77$  10.58$
|456>   Q  -1.3290  12.75$  19.25$  9.85$
|457>   Q  0.6645  16.88$  17.42$  9.27$
|458>   Q  0.6645  15.43$  18.1$  8.87$
|459>   Q  -1.3290  16.16$  17.91$  9.36$
|460>   Q  0.6645  17.48$  18.58$  14.82$
|461>   Q  0.6645  16.48$  19.54$  14.14$
|462>   Q  -1.3290  17.06$  18.94$  14.16$
|463>   Q  0.6645  18.75$  11.69$  8.07$
|464>   Q  0.6645  18.45$  11.5$  6.51$
|465>   Q  -1.3290  18.93$  11.69$  7.22$
|466>   Q  0.6645  14.81$  14.84$  1.34$
|467>   Q  0.6645  14.61$  14.36$  -0.04$
|468>   Q  -1.3290  14.5$  14.32$  0.79$
|469>   Q  0.6645  10.31$  3.24$  13.72$
|470>   Q  0.6645  10.72$  1.91$  14.32$
|471>   Q  -1.3290  10.27$  2.6$  14.28$
|472>   Q  0.6645  11.13$  10.3$  18.97$
|473>   Q  0.6645  10.02$  9.92$  17.99$
|474>   Q  -1.3290  10.49$  9.83$  18.7$
|475>   Q  0.6645  15.8$  16.54$  18.65$
|476>   Q  0.6645  16.52$  15.45$  17.74$
|477>   Q  -1.3290  16.37$  16.25$  18.03$
|478>   Q  0.6645  14.04$  7.12$  21.48$
|479>   Q  0.6645  12.98$  6.04$  20.74$
|480>   Q  -1.3290  13.38$  6.5$  21.38$
|481>   Q  0.6645  14.01$  21.97$  10.81$
|482>   Q  0.6645  15.13$  21.34$  9.97$
|483>   Q  -1.3290  14.34$  21.53$  10.17$
|484>   Q  0.6645  14.71$  12.67$  2.04$
|485>   Q  0.6645  15.69$  11.43$  2.55$
|486>   Q  -1.3290  14.95$  11.93$  2.49$
|487>   Q  0.6645  17.55$  11.15$  1.77$
|488>   Q  0.6645  18.28$  11.26$  3.14$
|489>   Q  -1.3290  17.62$  11.26$  2.6$
|490>   Q  0.6645  16.63$  2.79$  15.82$
|491>   Q  0.6645  16.08$  4.25$  15.48$
|492>   Q  -1.3290  16.16$  3.4$  15.41$
|493>   Q  0.6645  15.12$  14.17$  12.16$
|494>   Q  0.6645  14.96$  15.61$  11.9$
|495>   Q  -1.3290  14.7$  14.83$  11.9$
|496>   Q  0.6645  16.12$  5.32$  9.55$
|497>   Q  0.6645  15.74$  5.7$  8.19$
|498>   Q  -1.3290  15.74$  5.8$  9.02$
|499>   Q  0.6645  1.89$  6.16$  8.7$
|500>   Q  0.6645  1.8$  4.75$  8.33$
|501>   Q  -1.3290  1.57$  5.53$  8.29$
|502>   Q  0.6645  17.89$  6.09$  13.11$
|503>   Q  0.6645  17.68$  5.99$  11.61$
|504>   Q  -1.3290  17.52$  6.26$  12.39$
|505>   Q  0.6645  10.43$  12.71$  17.2$
|506>   Q  0.6645  9.48$  13.23$  16.15$
|507>   Q  -1.3290  10.2$  12.92$  16.41$
|508>   Q  0.6645  14.87$  15.19$  19.82$
|509>   Q  0.6645  13.73$  16.18$  19.62$
|510>   Q  -1.3290  14.47$  15.95$  19.92$
|511>   Q  0.6645  7.45$  2.33$  11.81$
|512>   Q  0.6645  6.56$  2.87$  10.75$
|513>   Q  -1.3290  7.27$  2.76$  11.1$
|514>   Q  0.6645  12.03$  15.51$  14.97$
|515>   Q  0.6645  11.23$  14.87$  15.98$
|516>   Q  -1.3290  11.64$  15.5$  15.71$
|517>   Q  0.6645  4.39$  12.33$  7.01$
|518>   Q  0.6645  3.58$  11.73$  5.77$
|519>   Q  -1.3290  3.89$  12.32$  6.3$
|520>   Q  0.6645  11.56$  21.42$  12.34$
|521>   Q  0.6645  10.61$  22.04$  11.32$
|522>   Q  -1.3290  10.82$  21.52$  11.96$
|523>   Q  0.6645  19.76$  15.52$  4.3$
|524>   Q  0.6645  18.42$  15.87$  4.83$
|525>   Q  -1.3290  19.01$  15.33$  4.58$
|526>   Q  0.6645  12.74$  6.81$  6.85$
|527>   Q  0.6645  12.19$  5.66$  6.07$
|528>   Q  -1.3290  12.72$  6.04$  6.57$
|529>   Q  0.6645  4.33$  18.02$  9.36$
|530>   Q  0.6645  4.85$  17.58$  7.97$
|531>   Q  -1.3290  4.88$  17.7$  8.8$
|532>   Q  0.6645  4.04$  6.14$  10.32$
|533>   Q  0.6645  4.38$  6.82$  8.88$
|534>   Q  -1.3290  3.98$  6.7$  9.64$
|535>   Q  0.6645  19.7$  13.63$  7.27$
|536>   Q  0.6645  19.41$  14.75$  6.27$
|537>   Q  -1.3290  19.67$  14.45$  7.01$
|538>   Q  0.6645  16.78$  9.27$  17.88$
|539>   Q  0.6645  16.04$  10.39$  17.15$
|540>   Q  -1.3290  16.16$  9.85$  17.78$
|541>   Q  0.6645  8.21$  0.67$  7.65$
|542>   Q  0.6645  8.12$  -0.54$  8.58$
|543>   Q  -1.3290  8.52$  0.06$  8.12$
|544>   Q  0.6645  13.91$  1.58$  12.63$
|545>   Q  0.6645  12.4$  1.77$  12.41$
|546>   Q  -1.3290  13.12$  1.34$  12.47$
|547>   Q  0.6645  20.43$  8.08$  4.17$
|548>   Q  0.6645  19.14$  8.2$  5$
|549>   Q  -1.3290  19.96$  8.27$  4.87$
|550>   Q  0.6645  4.94$  7.22$  15.08$
|551>   Q  0.6645  4.01$  8.45$  15.21$
|552>   Q  -1.3290  4.31$  7.72$  14.89$
|553>   Q  0.6645  5.29$  5.92$  4.59$
|554>   Q  0.6645  4.76$  4.66$  5.24$
|555>   Q  -1.3290  5.31$  5.31$  5.13$
|556>   Q  0.6645  0.52$  9.18$  11.62$
|557>   Q  0.6645  2.01$  9.24$  11.55$
|558>   Q  -1.3290  1.27$  9.16$  11.96$
|559>   Q  0.6645  4.18$  7.67$  3.7$
|560>   Q  0.6645  5.65$  7.85$  3.2$
|561>   Q  -1.3290  4.96$  7.44$  3.46$
|562>   Q  0.6645  14.81$  5.13$  6.23$
|563>   Q  0.6645  15.65$  4.01$  6.64$
|564>   Q  -1.3290  15.49$  4.8$  6.49$
|565>   Q  0.6645  3.73$  13.46$  11.35$
|566>   Q  0.6645  4.89$  14.4$  11.62$
|567>   Q  -1.3290  4.48$  13.71$  11.71$
|568>   Q  0.6645  4.44$  11.79$  18.86$
|569>   Q  0.6645  5.74$  11.12$  19.13$
|570>   Q  -1.3290  4.95$  11.39$  19.36$
|571>   Q  0.6645  7.44$  6.52$  7.11$
|572>   Q  0.6645  8.33$  7.46$  7.85$
|573>   Q  -1.3290  8.02$  7.1$  7.17$
|574>   Q  0.6645  3.51$  8.69$  9.79$
|575>   Q  0.6645  3.65$  10.18$  9.76$
|576>   Q  -1.3290  3.34$  9.47$  10.03$
|577>   Q  0.6645  15.81$  10.38$  9.5$
|578>   Q  0.6645  17.09$  11.06$  9.68$
|579>   Q  -1.3290  16.57$  10.42$  9.79$
|580>   Q  0.6645  16.02$  2.63$  13.47$
|581>   Q  0.6645  15.92$  2.37$  11.97$
|582>   Q  -1.3290  15.98$  2.16$  12.78$
|583>   Q  0.6645  15.76$  13.53$  18.72$
|584>   Q  0.6645  15.21$  12.72$  19.77$
|585>   Q  -1.3290  15.24$  13.38$  19.35$
|586>   Q  0.6645  10.56$  1.64$  18.54$
|587>   Q  0.6645  11.65$  2.43$  17.97$
|588>   Q  -1.3290  11.29$  2.04$  18.61$
|589>   Q  0.6645  17.09$  13.19$  12.88$
|590>   Q  0.6645  16.22$  11.87$  12.54$
|591>   Q  -1.3290  16.77$  12.54$  12.39$
|592>   Q  0.6645  1.15$  13.23$  7.37$
|593>   Q  0.6645  1.37$  11.88$  7.78$
|594>   Q  -1.3290  0.92$  12.54$  7.69$
|595>   Q  0.6645  4.43$  11.19$  14.65$
|596>   Q  0.6645  2.88$  11.18$  14.38$
|597>   Q  -1.3290  3.67$  10.85$  14.52$
|598>   Q  0.6645  18.01$  21.13$  10.11$
|599>   Q  0.6645  16.93$  20.02$  9.78$
|600>   Q  -1.3290  17.25$  20.77$  10.1$
|601>   Q  0.6645  7.06$  9.94$  17.78$
|602>   Q  0.6645  7.83$  9.8$  19.14$
|603>   Q  -1.3290  7.24$  10.08$  18.62$
|604>   Q  0.6645  21.68$  12.4$  10.03$
|605>   Q  0.6645  20.88$  13.71$  10.38$
|606>   Q  -1.3290  21.49$  13.14$  10.45$
|607>   Q  0.6645  13.66$  5.16$  14.02$
|608>   Q  0.6645  14.23$  3.8$  14.5$
|609>   Q  -1.3290  13.72$  4.3$  14.05$
|610>   Q  0.6645  14.6$  8.3$  17.87$
|611>   Q  0.6645  14.3$  7.01$  18.51$
|612>   Q  -1.3290  14.21$  7.59$  17.93$
|613>   Q  0.6645  17.35$  15.55$  13.1$
|614>   Q  0.6645  17.96$  14.9$  14.44$
|615>   Q  -1.3290  17.41$  14.98$  13.74$
|616>   Q  0.6645  13.73$  20.61$  13.88$
|617>   Q  0.6645  13.03$  19.18$  13.63$
|618>   Q  -1.3290  13.15$  19.95$  14$
|619>   Q  0.6645  7.69$  14.5$  1.57$
|620>   Q  0.6645  8.36$  15.86$  2.09$
|621>   Q  -1.3290  7.88$  15.33$  1.6$
|622>   Q  0.6645  7.33$  9.39$  2.54$
|623>   Q  0.6645  7.45$  9.01$  1.09$
|624>   Q  -1.3290  7.06$  9.28$  1.77$
|625>   Q  0.6645  17.29$  7.11$  5.47$
|626>   Q  0.6645  17.44$  8.04$  6.81$
|627>   Q  -1.3290  17.2$  7.79$  6$
|628>   Q  0.6645  8.04$  15.08$  16.3$
|629>   Q  0.6645  7.11$  13.79$  16.28$
|630>   Q  -1.3290  7.81$  14.23$  16.39$
|631>   Q  0.6645  7.58$  19.33$  15.96$
|632>   Q  0.6645  6.75$  18.87$  14.68$
|633>   Q  -1.3290  7.12$  18.8$  15.47$
|634>   Q  0.6645  18.36$  4.64$  8.05$
|635>   Q  0.6645  18.64$  4.36$  6.59$
|636>   Q  -1.3290  18.35$  4.18$  7.36$
|637>   Q  0.6645  9.98$  17.42$  6.05$
|638>   Q  0.6645  9.69$  15.94$  6.06$
|639>   Q  -1.3290  10.12$  16.63$  5.84$
|640>   Q  0.6645  12.92$  3.46$  9.15$
|641>   Q  0.6645  13.13$  5.04$  9.21$
|642>   Q  -1.3290  13.12$  4.22$  9.52$
|643>   Q  0.6645  15.91$  17.69$  11.15$
|644>   Q  0.6645  16.41$  17.86$  12.56$
|645>   Q  -1.3290  15.91$  17.54$  11.98$
|646>   Q  0.6645  14.45$  2.96$  17.44$
|647>   Q  0.6645  14.72$  2.59$  18.95$
|648>   Q  -1.3290  14.79$  3.05$  18.21$
|649>   Q  0.6645  6.53$  18.97$  9.8$
|650>   Q  0.6645  7.99$  19.22$  10.32$
|651>   Q  -1.3290  7.16$  19.38$  10.26$
|652>   Q  0.6645  15.67$  7.06$  12.29$
|653>   Q  0.6645  14.26$  7.54$  11.79$
|654>   Q  -1.3290  14.94$  7.52$  12.31$
|655>   Q  0.6645  15.11$  8.57$  5.59$
|656>   Q  0.6645  14.91$  10.09$  5.73$
|657>   Q  -1.3290  14.71$  9.28$  5.79$
|658>   Q  0.6645  15.03$  14.99$  5.34$
|659>   Q  0.6645  13.74$  15.73$  5.18$
|660>   Q  -1.3290  14.56$  15.65$  5.1$
|661> *
|662> 
|663>                          ****END OF INPUT****
================================================================================

                     *******************************
                     * Energy+Gradient Calculation *
                     *******************************

---------------------------------
CARTESIAN COORDINATES (ANGSTROEM)
---------------------------------
  C     10.070000   10.340000   11.940000
  H     10.600000    9.790000   11.150000
  H      9.080000   10.690000   11.640000
  C     10.830000   11.510000   12.390000
  H     10.230000   12.160000   12.930000
  H     11.580000   11.210000   13.100000
  C     11.470000   12.110000   11.100000
  H     12.590000   12.040000   11.110000
  H     11.280000   13.170000   11.160000
  C     11.040000   11.470000    9.750000
  H      9.980000   11.600000    9.510000
  H     11.220000   10.370000    9.620000
  O     11.790000   12.080000    8.650000
  H     12.630000   11.510000    8.620000
  O      9.910000    9.460000   13.090000
  H      9.840000    8.550000   12.850000
  O      7.710000   12.820000   13.180000
  H      8.550000   13.270000   13.010000
  H      7.490000   12.420000   12.330000
  O      8.560000   10.620000    7.230000
  H      8.890000   10.230000    8.070000
  H      8.320000   11.520000    7.370000
  O      8.000000   13.450000    8.210000
  H      8.780000   13.790000    8.610000
  H      7.490000   13.270000    8.990000
  O      9.170000    6.300000   12.960000
  H      8.380000    6.840000   12.880000
  H      9.260000    6.020000   13.880000
  O     10.560000    6.200000   10.450000
  H     10.310000    5.440000    9.880000
  H      9.980000    6.090000   11.180000
  O      6.880000    9.760000    9.390000
  H      6.980000    9.600000    8.450000
  H      7.020000    8.860000    9.640000
  O      6.500000   12.460000   10.340000
  H      6.530000   11.470000   10.390000
  H      5.780000   12.740000   10.970000
  O      7.090000    7.070000   10.400000
  H      6.960000    6.950000   11.330000
  H      6.770000    6.350000    9.820000
  O     13.260000    7.190000   10.120000
  H     12.530000    6.700000   10.430000
  H     14.100000    6.680000    9.960000
  O     11.200000   10.200000    5.930000
  H     10.280000   10.290000    6.250000
  H     11.840000   10.120000    6.660000
  O      6.660000    7.870000   13.130000
  H      6.200000    8.530000   12.590000
  H      6.170000    7.060000   13.100000
  O     14.440000   11.580000    8.080000
  H     14.440000   11.680000    7.110000
  H     14.470000   12.490000    8.410000
  O     12.670000    8.570000    7.830000
  H     13.520000    8.940000    7.540000
  H     12.830000    8.070000    8.640000
  O     12.120000   15.410000   13.220000
  H     11.590000   14.740000   12.830000
  H     13.050000   15.110000   13.130000
  O      9.760000    4.650000    8.450000
  H      9.770000    3.690000    8.450000
  H      9.910000    5.010000    7.560000
  O     12.850000    9.370000   15.610000
  H     11.920000    9.570000   15.500000
  H     12.870000    9.350000   16.620000
  O      6.310000   15.710000   10.890000
  H      6.030000   16.420000   10.320000
  H      7.050000   15.260000   10.440000
  O      9.890000   15.220000    9.300000
  H      9.430000   15.920000    8.830000
  H     10.820000   15.470000    9.030000
  O      9.860000    8.520000    8.710000
  H     10.720000    8.650000    8.300000
  H     10.070000    7.900000    9.420000
  O      9.610000   14.580000   12.200000
  H      9.630000   15.340000   12.710000
  H      9.730000   14.900000   11.340000
  O     11.420000    3.690000   12.170000
  H     11.540000    4.140000   11.350000
  H     12.180000    3.980000   12.740000
  O     10.090000   10.230000   15.580000
  H     10.460000   11.100000   15.780000
  H      9.920000   10.150000   14.620000
  O      6.250000   15.500000   14.390000
  H      6.690000   14.760000   13.970000
  H      5.430000   15.190000   14.860000
  O      6.140000   12.010000   15.160000
  H      6.370000   11.120000   15.370000
  H      6.720000   12.260000   14.500000
  O      9.060000    4.850000   15.770000
  H      9.570000    4.100000   15.510000
  H      9.820000    5.410000   16.080000
  O     11.710000   13.620000    6.240000
  H     11.640000   13.100000    7.060000
  H     11.220000   13.150000    5.570000
  O      7.730000   15.580000    6.440000
  H      7.810000   14.710000    6.700000
  H      6.990000   15.740000    5.820000
  Q     12.480000   17.100000   12.670000
  Q     13.850000   17.600000   12.440000
  Q     13.050000   17.660000   12.440000
  Q      6.010000    4.250000   13.380000
  Q      6.980000    4.600000   12.300000
  Q      6.330000    4.730000   12.780000
  Q     16.990000   13.010000   16.620000
  Q     18.290000   13.460000   17.300000
  Q     17.450000   13.430000   17.210000
  Q     20.550000   10.460000    7.070000
  Q     20.530000    8.970000    6.750000
  Q     20.770000    9.640000    7.180000
  Q      7.880000   17.180000    7.510000
  Q      8.930000   18.130000    7.780000
  Q      8.410000   17.550000    8.030000
  Q     10.920000    7.120000   17.420000
  Q     12.020000    6.470000   16.330000
  Q     11.210000    6.690000   16.680000
  Q     18.700000    8.530000   17.090000
  Q     18.500000    7.620000   18.340000
  Q     18.430000    8.350000   17.880000
  Q     12.360000   10.750000    4.170000
  Q     13.310000   11.150000    2.980000
  Q     12.590000   10.790000    3.350000
  Q     17.660000   13.810000    5.250000
  Q     16.530000   12.820000    5.790000
  Q     16.890000   13.460000    5.290000
  Q      1.110000    9.970000   15.670000
  Q      1.460000    8.440000   16.000000
  Q      1.020000    9.190000   16.080000
  Q      7.490000   13.770000   20.250000
  Q      7.520000   15.010000   21.110000
  Q      7.140000   14.460000   20.610000
  Q      2.900000   16.720000    8.920000
  Q      1.390000   16.960000    9.000000
  Q      2.220000   17.100000    9.230000
  Q      2.670000   16.140000   12.490000
  Q      2.070000   15.590000   11.090000
  Q      2.090000   15.810000   11.950000
  Q      4.280000    6.760000   17.880000
  Q      4.320000    5.290000   18.640000
  Q      4.280000    5.880000   17.960000
  Q     15.170000    9.590000   13.300000
  Q     14.220000   10.220000   14.260000
  Q     14.830000   10.260000   13.710000
  Q     15.750000   15.260000   14.710000
  Q     14.990000   16.430000   15.480000
  Q     15.100000   15.720000   14.990000
  Q      4.820000   16.480000   17.370000
  Q      5.640000   17.250000   16.100000
  Q      4.990000   16.840000   16.560000
  Q     11.770000   12.520000   19.300000
  Q     12.380000   12.150000   17.970000
  Q     12.030000   12.000000   18.720000
  Q      1.860000    6.090000   15.420000
  Q      2.550000    6.530000   16.580000
  Q      1.870000    6.450000   16.140000
  Q      8.430000   19.670000    6.460000
  Q      9.580000   19.570000    5.370000
  Q      9.150000   19.330000    6.100000
  Q     10.280000    8.090000   19.310000
  Q      9.230000    6.770000   19.220000
  Q      9.990000    7.200000   19.170000
  Q     18.010000   14.980000    8.100000
  Q     16.550000   15.180000    8.680000
  Q     17.360000   15.370000    8.510000
  Q     20.740000    9.580000    9.270000
  Q     20.010000    9.200000   10.540000
  Q     20.560000    9.690000   10.090000
  Q      4.180000    4.510000   12.010000
  Q      2.980000    3.980000   11.060000
  Q      3.760000    4.320000   11.290000
  Q     14.530000   20.710000    6.030000
  Q     13.450000   20.280000    5.130000
  Q     14.030000   20.150000    5.720000
  Q     18.570000    6.420000    9.190000
  Q     19.370000    5.300000    9.730000
  Q     18.690000    5.700000    9.600000
  Q      1.490000   13.780000   10.250000
  Q      2.180000   14.290000    8.920000
  Q      2.150000   14.000000    9.720000
  Q      1.140000   10.480000   13.500000
  Q      0.330000   11.780000   13.830000
  Q      0.840000   11.090000   14.000000
  Q     11.030000    6.920000    4.590000
  Q     11.350000    8.550000    4.770000
  Q     11.040000    7.800000    4.370000
  Q     16.010000   11.040000   14.820000
  Q     17.430000   11.090000   15.290000
  Q     16.630000   11.330000   15.330000
  Q      4.220000   13.760000   13.710000
  Q      3.070000   14.370000   14.560000
  Q      3.860000   14.110000   14.410000
  Q      1.220000    9.600000    7.210000
  Q      2.580000    9.890000    7.800000
  Q      2.050000    9.630000    7.220000
  Q      2.740000    3.980000   14.060000
  Q      3.670000    5.220000   14.010000
  Q      2.950000    4.810000   14.120000
  Q      8.360000   13.170000   18.260000
  Q      9.330000   13.570000   19.500000
  Q      8.850000   13.080000   19.020000
  Q     13.650000   18.790000   15.960000
  Q     13.600000   17.860000   17.140000
  Q     13.980000   18.390000   16.630000
  Q      8.670000    1.410000   13.600000
  Q      8.060000    0.040000   13.230000
  Q      8.040000    0.870000   13.340000
  Q      8.050000    3.730000   16.990000
  Q      7.230000    3.220000   18.190000
  Q      7.480000    3.250000   17.370000
  Q      8.930000    9.220000   21.430000
  Q      9.770000    8.110000   21.910000
  Q      9.020000    8.450000   21.650000
  Q      7.060000    8.270000   15.920000
  Q      8.100000    9.350000   16.230000
  Q      7.330000    9.030000   16.190000
  Q      3.190000   13.140000   17.340000
  Q      4.350000   12.850000   16.470000
  Q      3.970000   12.900000   17.170000
  Q     17.160000    6.200000   15.860000
  Q     15.530000    6.510000   16.040000
  Q     16.340000    6.110000   16.190000
  Q     10.890000   13.720000    3.430000
  Q     11.430000   12.190000    3.490000
  Q     10.910000   12.890000    3.660000
  Q      8.180000   17.170000   15.980000
  Q      9.600000   16.840000   15.880000
  Q      8.860000   16.780000   16.240000
  Q     12.120000   -0.530000   14.710000
  Q     10.980000    0.030000   15.720000
  Q     11.570000    0.060000   15.080000
  Q      9.290000   11.470000   20.660000
  Q      8.590000   11.380000   22.040000
  Q      9.040000   11.100000   21.410000
  Q     19.850000   15.820000   11.160000
  Q     18.730000   15.640000   10.090000
  Q     19.280000   15.380000   10.680000
  Q     15.890000    2.700000    9.710000
  Q     14.840000    3.610000   10.400000
  Q     15.620000    3.260000   10.290000
  Q     19.740000   11.150000   15.860000
  Q     19.780000   10.020000   14.920000
  Q     19.400000   10.500000   15.450000
  Q     17.320000    8.770000    9.010000
  Q     16.910000    7.330000    8.620000
  Q     17.410000    8.020000    8.610000
  Q      6.240000    4.360000    8.580000
  Q      7.770000    4.810000    8.580000
  Q      6.930000    4.910000    8.450000
  Q      8.800000   16.200000   18.260000
  Q      9.380000   17.110000   19.300000
  Q      8.990000   16.440000   19.040000
  Q      4.460000   15.370000    6.640000
  Q      4.590000   16.630000    5.600000
  Q      4.390000   16.190000    6.340000
  Q      8.760000   18.240000    3.060000
  Q      8.770000   17.270000    4.270000
  Q      8.510000   17.560000    3.510000
  Q     12.290000   16.550000   17.400000
  Q     11.760000   17.120000   18.780000
  Q     12.310000   16.770000   18.240000
  Q     14.090000   18.590000    6.990000
  Q     13.570000   18.200000    8.330000
  Q     14.100000   18.130000    7.690000
  Q     14.770000   12.120000    4.700000
  Q     13.520000   12.540000    5.540000
  Q     14.210000   12.120000    5.370000
  Q     15.950000    6.000000   18.450000
  Q     15.180000    4.840000   19.080000
  Q     15.530000    5.610000   19.060000
  Q     19.970000    9.820000    4.220000
  Q     20.430000   11.260000    4.380000
  Q     20.120000   10.600000    3.970000
  Q      9.480000    6.270000    5.910000
  Q      9.380000    4.840000    5.180000
  Q      9.760000    5.490000    5.600000
  Q      8.050000    7.370000   20.610000
  Q      7.760000    5.760000   20.810000
  Q      7.760000    6.540000   20.430000
  Q     11.140000   15.320000    1.310000
  Q     12.290000   14.670000    0.700000
  Q     11.490000   14.790000    0.760000
  Q     13.940000   10.720000   20.530000
  Q     15.160000   10.480000   19.410000
  Q     14.740000   10.830000   20.140000
  Q     14.310000    7.070000   14.110000
  Q     13.490000    7.290000   15.460000
  Q     13.860000    6.830000   14.860000
  Q     11.200000   14.410000   20.540000
  Q     11.910000   15.040000   19.360000
  Q     11.550000   14.430000   19.770000
  Q     16.800000    5.710000    3.910000
  Q     18.080000    6.160000    3.170000
  Q     17.580000    6.000000    3.840000
  Q     10.860000   19.420000   16.420000
  Q     11.790000   20.200000   17.420000
  Q     11.050000   19.870000   17.110000
  Q     10.030000   19.990000   11.180000
  Q     10.580000   19.050000    9.990000
  Q     10.020000   19.390000   10.560000
  Q     12.720000    9.710000    1.020000
  Q     11.820000   10.650000    0.250000
  Q     12.560000   10.260000    0.430000
  Q     10.470000   19.770000   14.160000
  Q      9.630000   18.560000   13.910000
  Q     10.030000   19.110000   14.420000
  Q     16.190000   16.560000    5.750000
  Q     17.340000   16.660000    6.640000
  Q     16.970000   16.740000    5.920000
  Q      6.590000   13.360000    4.580000
  Q      5.210000   13.150000    5.060000
  Q      5.860000   13.630000    4.850000
  Q     17.010000   10.860000    4.620000
  Q     16.860000    9.800000    5.700000
  Q     16.960000   10.560000    5.400000
  Q     19.900000   12.570000   12.880000
  Q     21.250000   13.280000   12.550000
  Q     20.640000   12.970000   13.040000
  Q     13.640000   14.550000    8.490000
  Q     14.320000   14.350000    9.900000
  Q     14.230000   14.240000    9.040000
  Q     14.380000    5.090000    2.630000
  Q     14.750000    4.690000    4.050000
  Q     14.650000    5.250000    3.440000
  Q      6.160000    3.050000   15.280000
  Q      6.630000    2.100000   14.180000
  Q      6.120000    2.690000   14.550000
  Q     15.100000    9.870000    0.260000
  Q     14.980000    9.050000    1.440000
  Q     15.380000    9.290000    0.760000
  Q      4.720000    3.480000    9.990000
  Q      4.720000    2.470000    8.750000
  Q      5.000000    3.100000    9.270000
  Q     15.030000   16.330000    3.200000
  Q     16.310000   15.720000    2.570000
  Q     15.560000   16.130000    2.570000
  Q      4.910000   11.940000    9.380000
  Q      3.460000   12.280000    9.190000
  Q      4.170000   11.860000    9.040000
  Q     12.040000   15.860000    6.870000
  Q     12.960000   16.720000    7.710000
  Q     12.380000   16.120000    7.590000
  Q     18.520000   12.970000   10.170000
  Q     19.480000   11.680000   10.160000
  Q     18.850000   12.210000    9.890000
  Q     11.810000    1.680000    9.200000
  Q     13.320000    1.270000    8.860000
  Q     12.540000    1.730000    8.820000
  Q      6.800000   12.380000    1.160000
  Q      7.670000   12.370000    2.410000
  Q      7.420000   12.650000    1.660000
  Q      3.430000   12.580000    3.120000
  Q      4.240000   13.870000    3.240000
  Q      3.670000   13.390000    2.880000
  Q      7.180000    5.830000   15.780000
  Q      5.820000    5.720000   16.370000
  Q      6.420000    6.090000   15.940000
  Q      4.570000    9.820000   11.500000
  Q      4.690000    9.770000   12.890000
  Q      4.960000   10.020000   12.150000
  Q     17.340000   13.270000    2.290000
  Q     18.100000   14.490000    2.900000
  Q     17.600000   14.070000    2.340000
  Q     13.760000   17.520000    2.330000
  Q     12.890000   18.710000    3.010000
  Q     13.130000   17.910000    2.760000
  Q      1.410000    5.810000   12.790000
  Q      1.100000    7.280000   12.310000
  Q      0.950000    6.430000   12.450000
  Q      3.210000   16.340000   15.660000
  Q      2.230000   16.840000   14.480000
  Q      2.450000   16.540000   15.260000
  Q     12.070000   16.260000    3.280000
  Q     11.190000   15.820000    4.490000
  Q     11.550000   15.740000    3.710000
  Q      5.150000    7.240000    6.380000
  Q      3.750000    7.820000    6.720000
  Q      4.600000    7.680000    6.850000
  Q      9.130000    2.050000   10.490000
  Q      9.440000    1.240000    9.300000
  Q      9.660000    1.690000    9.930000
  Q      5.800000   14.880000   19.480000
  Q      4.980000   14.160000   18.470000
  Q      5.230000   14.850000   18.850000
  Q     11.350000    3.910000   19.890000
  Q     11.130000    5.450000   19.740000
  Q     11.480000    4.750000   20.070000
  Q     14.870000    7.290000    3.420000
  Q     14.200000    8.650000    3.850000
  Q     14.740000    8.150000    3.430000
  Q      4.930000   16.600000   13.490000
  Q      4.510000   17.930000   12.810000
  Q      4.440000   17.110000   13.020000
  Q     18.300000    8.130000   12.230000
  Q     17.960000    9.410000   11.290000
  Q     18.430000    8.770000   11.620000
  Q      6.380000   19.510000   11.940000
  Q      5.630000   20.160000   13.030000
  Q      6.140000   19.620000   12.750000
  Q      9.480000   17.990000   11.700000
  Q      8.400000   17.080000   12.200000
  Q      9.150000   17.480000   12.270000
  Q      7.680000    3.730000    3.610000
  Q      6.950000    4.450000    4.710000
  Q      7.600000    4.010000    4.410000
  Q      7.700000    9.060000    5.250000
  Q      8.850000    8.680000    4.420000
  Q      8.150000    9.080000    4.570000
  Q     12.790000    2.990000   15.770000
  Q     12.480000    1.520000   15.880000
  Q     12.760000    2.250000   16.150000
  Q     11.880000    6.930000    1.270000
  Q     10.810000    7.600000    2.370000
  Q     11.110000    7.160000    1.640000
  Q      2.340000   15.180000    6.400000
  Q      2.790000   13.640000    6.610000
  Q      2.400000   14.440000    6.820000
  Q      9.400000   -0.250000   17.490000
  Q      8.610000    1.010000   17.150000
  Q      9.300000    0.560000   17.310000
  Q      8.260000   11.150000    4.210000
  Q      9.080000   12.530000    3.810000
  Q      8.370000   12.010000    3.970000
  Q     19.940000   15.350000   16.190000
  Q     19.990000   14.060000   15.520000
  Q     19.810000   14.850000   15.560000
  Q      4.970000    9.030000   18.630000
  Q      3.520000    9.060000   18.800000
  Q      4.220000    8.770000   18.470000
  Q     13.180000   19.970000    9.660000
  Q     12.700000   18.770000   10.580000
  Q     12.750000   19.250000    9.850000
  Q     16.880000   17.420000    9.270000
  Q     15.430000   18.100000    8.870000
  Q     16.160000   17.910000    9.360000
  Q     17.480000   18.580000   14.820000
  Q     16.480000   19.540000   14.140000
  Q     17.060000   18.940000   14.160000
  Q     18.750000   11.690000    8.070000
  Q     18.450000   11.500000    6.510000
  Q     18.930000   11.690000    7.220000
  Q     14.810000   14.840000    1.340000
  Q     14.610000   14.360000   -0.040000
  Q     14.500000   14.320000    0.790000
  Q     10.310000    3.240000   13.720000
  Q     10.720000    1.910000   14.320000
  Q     10.270000    2.600000   14.280000
  Q     11.130000   10.300000   18.970000
  Q     10.020000    9.920000   17.990000
  Q     10.490000    9.830000   18.700000
  Q     15.800000   16.540000   18.650000
  Q     16.520000   15.450000   17.740000
  Q     16.370000   16.250000   18.030000
  Q     14.040000    7.120000   21.480000
  Q     12.980000    6.040000   20.740000
  Q     13.380000    6.500000   21.380000
  Q     14.010000   21.970000   10.810000
  Q     15.130000   21.340000    9.970000
  Q     14.340000   21.530000   10.170000
  Q     14.710000   12.670000    2.040000
  Q     15.690000   11.430000    2.550000
  Q     14.950000   11.930000    2.490000
  Q     17.550000   11.150000    1.770000
  Q     18.280000   11.260000    3.140000
  Q     17.620000   11.260000    2.600000
  Q     16.630000    2.790000   15.820000
  Q     16.080000    4.250000   15.480000
  Q     16.160000    3.400000   15.410000
  Q     15.120000   14.170000   12.160000
  Q     14.960000   15.610000   11.900000
  Q     14.700000   14.830000   11.900000
  Q     16.120000    5.320000    9.550000
  Q     15.740000    5.700000    8.190000
  Q     15.740000    5.800000    9.020000
  Q      1.890000    6.160000    8.700000
  Q      1.800000    4.750000    8.330000
  Q      1.570000    5.530000    8.290000
  Q     17.890000    6.090000   13.110000
  Q     17.680000    5.990000   11.610000
  Q     17.520000    6.260000   12.390000
  Q     10.430000   12.710000   17.200000
  Q      9.480000   13.230000   16.150000
  Q     10.200000   12.920000   16.410000
  Q     14.870000   15.190000   19.820000
  Q     13.730000   16.180000   19.620000
  Q     14.470000   15.950000   19.920000
  Q      7.450000    2.330000   11.810000
  Q      6.560000    2.870000   10.750000
  Q      7.270000    2.760000   11.100000
  Q     12.030000   15.510000   14.970000
  Q     11.230000   14.870000   15.980000
  Q     11.640000   15.500000   15.710000
  Q      4.390000   12.330000    7.010000
  Q      3.580000   11.730000    5.770000
  Q      3.890000   12.320000    6.300000
  Q     11.560000   21.420000   12.340000
  Q     10.610000   22.040000   11.320000
  Q     10.820000   21.520000   11.960000
  Q     19.760000   15.520000    4.300000
  Q     18.420000   15.870000    4.830000
  Q     19.010000   15.330000    4.580000
  Q     12.740000    6.810000    6.850000
  Q     12.190000    5.660000    6.070000
  Q     12.720000    6.040000    6.570000
  Q      4.330000   18.020000    9.360000
  Q      4.850000   17.580000    7.970000
  Q      4.880000   17.700000    8.800000
  Q      4.040000    6.140000   10.320000
  Q      4.380000    6.820000    8.880000
  Q      3.980000    6.700000    9.640000
  Q     19.700000   13.630000    7.270000
  Q     19.410000   14.750000    6.270000
  Q     19.670000   14.450000    7.010000
  Q     16.780000    9.270000   17.880000
  Q     16.040000   10.390000   17.150000
  Q     16.160000    9.850000   17.780000
  Q      8.210000    0.670000    7.650000
  Q      8.120000   -0.540000    8.580000
  Q      8.520000    0.060000    8.120000
  Q     13.910000    1.580000   12.630000
  Q     12.400000    1.770000   12.410000
  Q     13.120000    1.340000   12.470000
  Q     20.430000    8.080000    4.170000
  Q     19.140000    8.200000    5.000000
  Q     19.960000    8.270000    4.870000
  Q      4.940000    7.220000   15.080000
  Q      4.010000    8.450000   15.210000
  Q      4.310000    7.720000   14.890000
  Q      5.290000    5.920000    4.590000
  Q      4.760000    4.660000    5.240000
  Q      5.310000    5.310000    5.130000
  Q      0.520000    9.180000   11.620000
  Q      2.010000    9.240000   11.550000
  Q      1.270000    9.160000   11.960000
  Q      4.180000    7.670000    3.700000
  Q      5.650000    7.850000    3.200000
  Q      4.960000    7.440000    3.460000
  Q     14.810000    5.130000    6.230000
  Q     15.650000    4.010000    6.640000
  Q     15.490000    4.800000    6.490000
  Q      3.730000   13.460000   11.350000
  Q      4.890000   14.400000   11.620000
  Q      4.480000   13.710000   11.710000
  Q      4.440000   11.790000   18.860000
  Q      5.740000   11.120000   19.130000
  Q      4.950000   11.390000   19.360000
  Q      7.440000    6.520000    7.110000
  Q      8.330000    7.460000    7.850000
  Q      8.020000    7.100000    7.170000
  Q      3.510000    8.690000    9.790000
  Q      3.650000   10.180000    9.760000
  Q      3.340000    9.470000   10.030000
  Q     15.810000   10.380000    9.500000
  Q     17.090000   11.060000    9.680000
  Q     16.570000   10.420000    9.790000
  Q     16.020000    2.630000   13.470000
  Q     15.920000    2.370000   11.970000
  Q     15.980000    2.160000   12.780000
  Q     15.760000   13.530000   18.720000
  Q     15.210000   12.720000   19.770000
  Q     15.240000   13.380000   19.350000
  Q     10.560000    1.640000   18.540000
  Q     11.650000    2.430000   17.970000
  Q     11.290000    2.040000   18.610000
  Q     17.090000   13.190000   12.880000
  Q     16.220000   11.870000   12.540000
  Q     16.770000   12.540000   12.390000
  Q      1.150000   13.230000    7.370000
  Q      1.370000   11.880000    7.780000
  Q      0.920000   12.540000    7.690000
  Q      4.430000   11.190000   14.650000
  Q      2.880000   11.180000   14.380000
  Q      3.670000   10.850000   14.520000
  Q     18.010000   21.130000   10.110000
  Q     16.930000   20.020000    9.780000
  Q     17.250000   20.770000   10.100000
  Q      7.060000    9.940000   17.780000
  Q      7.830000    9.800000   19.140000
  Q      7.240000   10.080000   18.620000
  Q     21.680000   12.400000   10.030000
  Q     20.880000   13.710000   10.380000
  Q     21.490000   13.140000   10.450000
  Q     13.660000    5.160000   14.020000
  Q     14.230000    3.800000   14.500000
  Q     13.720000    4.300000   14.050000
  Q     14.600000    8.300000   17.870000
  Q     14.300000    7.010000   18.510000
  Q     14.210000    7.590000   17.930000
  Q     17.350000   15.550000   13.100000
  Q     17.960000   14.900000   14.440000
  Q     17.410000   14.980000   13.740000
  Q     13.730000   20.610000   13.880000
  Q     13.030000   19.180000   13.630000
  Q     13.150000   19.950000   14.000000
  Q      7.690000   14.500000    1.570000
  Q      8.360000   15.860000    2.090000
  Q      7.880000   15.330000    1.600000
  Q      7.330000    9.390000    2.540000
  Q      7.450000    9.010000    1.090000
  Q      7.060000    9.280000    1.770000
  Q     17.290000    7.110000    5.470000
  Q     17.440000    8.040000    6.810000
  Q     17.200000    7.790000    6.000000
  Q      8.040000   15.080000   16.300000
  Q      7.110000   13.790000   16.280000
  Q      7.810000   14.230000   16.390000
  Q      7.580000   19.330000   15.960000
  Q      6.750000   18.870000   14.680000
  Q      7.120000   18.800000   15.470000
  Q     18.360000    4.640000    8.050000
  Q     18.640000    4.360000    6.590000
  Q     18.350000    4.180000    7.360000
  Q      9.980000   17.420000    6.050000
  Q      9.690000   15.940000    6.060000
  Q     10.120000   16.630000    5.840000
  Q     12.920000    3.460000    9.150000
  Q     13.130000    5.040000    9.210000
  Q     13.120000    4.220000    9.520000
  Q     15.910000   17.690000   11.150000
  Q     16.410000   17.860000   12.560000
  Q     15.910000   17.540000   11.980000
  Q     14.450000    2.960000   17.440000
  Q     14.720000    2.590000   18.950000
  Q     14.790000    3.050000   18.210000
  Q      6.530000   18.970000    9.800000
  Q      7.990000   19.220000   10.320000
  Q      7.160000   19.380000   10.260000
  Q     15.670000    7.060000   12.290000
  Q     14.260000    7.540000   11.790000
  Q     14.940000    7.520000   12.310000
  Q     15.110000    8.570000    5.590000
  Q     14.910000   10.090000    5.730000
  Q     14.710000    9.280000    5.790000
  Q     15.030000   14.990000    5.340000
  Q     13.740000   15.730000    5.180000
  Q     14.560000   15.650000    5.100000

----------------------------
CARTESIAN COORDINATES (A.U.)
----------------------------
  NO LB      ZA    FRAG     MASS         X           Y           Z
   0 C     6.0000    0    12.011   19.029542   19.539768   22.563330
   1 H     1.0000    0     1.008   20.031097   18.500419   21.070446
   2 H     1.0000    0     1.008   17.158713   20.201172   21.996412
   3 C     6.0000    0    12.011   20.465734   21.750748   23.413707
   4 H     1.0000    0     1.008   19.331898   22.979070   24.434159
   5 H     1.0000    0     1.008   21.883029   21.183830   24.755412
   6 C     6.0000    0    12.011   21.675159   22.884583   20.975960
   7 H     1.0000    0     1.008   23.791652   22.752303   20.994857
   8 H     1.0000    0     1.008   21.316111   24.887693   21.089344
   9 C     6.0000    0    12.011   20.862577   21.675159   18.424830
  10 H     1.0000    0     1.008   18.859467   21.920823   17.971296
  11 H     1.0000    0     1.008   21.202727   19.596460   18.179165
  12 O     8.0000    0    15.999   22.279871   22.827892   16.346131
  13 H     1.0000    0     1.008   23.867241   21.750748   16.289439
  14 O     8.0000    0    15.999   18.727186   17.876809   24.736515
  15 H     1.0000    0     1.008   18.594905   16.157158   24.282981
  16 O     8.0000    0    15.999   14.569788   24.226289   24.906590
  17 H     1.0000    0     1.008   16.157158   25.076666   24.585337
  18 H     1.0000    0     1.008   14.154049   23.470399   23.300323
  19 O     8.0000    0    15.999   16.176056   20.068892   13.662720
  20 H     1.0000    0     1.008   16.799665   19.331898   15.250090
  21 H     1.0000    0     1.008   15.722521   21.769645   13.927282
  22 O     8.0000    0    15.999   15.117809   25.416817   15.514652
  23 H     1.0000    0     1.008   16.591795   26.059323   16.270542
  24 H     1.0000    0     1.008   14.154049   25.076666   16.988638
  25 O     8.0000    0    15.999   17.328789   11.905275   24.490851
  26 H     1.0000    0     1.008   15.835905   12.925727   24.339673
  27 H     1.0000    0     1.008   17.498864   11.376151   26.229399
  28 O     8.0000    0    15.999   19.955508   11.716302   19.747638
  29 H     1.0000    0     1.008   19.483076   10.280110   18.670494
  30 H     1.0000    0     1.008   18.859467   11.508432   21.127138
  31 O     8.0000    0    15.999   13.001316   18.443727   17.744528
  32 H     1.0000    0     1.008   13.190288   18.141371   15.968186
  33 H     1.0000    0     1.008   13.265877   16.742974   18.216960
  34 O     8.0000    0    15.999   12.283220   23.545988   19.539768
  35 H     1.0000    0     1.008   12.339912   21.675159   19.634255
  36 H     1.0000    0     1.008   10.922617   24.075111   20.730296
  37 O     8.0000    0    15.999   13.398158   13.360364   19.653152
  38 H     1.0000    0     1.008   13.152494   13.133597   21.410597
  39 H     1.0000    0     1.008   12.793446   11.999761   18.557111
  40 O     8.0000    0    15.999   25.057769   13.587131   19.124028
  41 H     1.0000    0     1.008   23.678268   12.661165   19.709844
  42 H     1.0000    0     1.008   26.645138   12.623371   18.821672
  43 O     8.0000    0    15.999   21.164933   19.275207   11.206076
  44 H     1.0000    0     1.008   19.426385   19.445282   11.810788
  45 H     1.0000    0     1.008   22.374357   19.124028   12.585576
  46 O     8.0000    0    15.999   12.585576   14.872145   24.812104
  47 H     1.0000    0     1.008   11.716302   16.119364   23.791652
  48 H     1.0000    0     1.008   11.659610   13.341467   24.755412
  49 O     8.0000    0    15.999   27.287645   21.883029   15.268987
  50 H     1.0000    0     1.008   27.287645   22.072001   13.435953
  51 H     1.0000    0     1.008   27.344337   23.602679   15.892597
  52 O     8.0000    0    15.999   23.942830   16.194953   14.796556
  53 H     1.0000    0     1.008   25.549097   16.894152   14.248535
  54 H     1.0000    0     1.008   24.245186   15.250090   16.327234
  55 O     8.0000    0    15.999   22.903481   29.120680   24.982179
  56 H     1.0000    0     1.008   21.901926   27.854563   24.245186
  57 H     1.0000    0     1.008   24.660926   28.553762   24.812104
  58 O     8.0000    0    15.999   18.443727    8.787227   15.968186
  59 H     1.0000    0     1.008   18.462624    6.973089   15.968186
  60 H     1.0000    0     1.008   18.727186    9.467528   14.286330
  61 O     8.0000    0    15.999   24.282981   17.706734   29.498625
  62 H     1.0000    0     1.008   22.525536   18.084679   29.290755
  63 H     1.0000    0     1.008   24.320775   17.668939   31.407248
  64 O     8.0000    0    15.999   11.924172   29.687598   20.579118
  65 H     1.0000    0     1.008   11.395049   31.029303   19.501974
  66 H     1.0000    0     1.008   13.322569   28.837221   19.728741
  67 O     8.0000    0    15.999   18.689391   28.761632   17.574453
  68 H     1.0000    0     1.008   17.820117   30.084440   16.686282
  69 H     1.0000    0     1.008   20.446837   29.234063   17.064227
  70 O     8.0000    0    15.999   18.632700   16.100467   16.459515
  71 H     1.0000    0     1.008   20.257864   16.346131   15.684727
  72 H     1.0000    0     1.008   19.029542   14.928836   17.801220
  73 O     8.0000    0    15.999   18.160268   27.552207   23.054659
  74 H     1.0000    0     1.008   18.198063   28.988399   24.018419
  75 H     1.0000    0     1.008   18.387035   28.156919   21.429494
  76 O     8.0000    0    15.999   21.580672    6.973089   22.997967
  77 H     1.0000    0     1.008   21.807440    7.823466   21.448392
  78 H     1.0000    0     1.008   23.016864    7.521110   24.075111
  79 O     8.0000    0    15.999   19.067337   19.331898   29.441933
  80 H     1.0000    0     1.008   19.766535   20.975960   29.819878
  81 H     1.0000    0     1.008   18.746083   19.180720   27.627796
  82 O     8.0000    0    15.999   11.810788   29.290755   27.193159
  83 H     1.0000    0     1.008   12.642268   27.892358   26.399474
  84 H     1.0000    0     1.008   10.261213   28.704940   28.081330
  85 O     8.0000    0    15.999   11.602918   22.695611   28.648248
  86 H     1.0000    0     1.008   12.037555   21.013755   29.045091
  87 H     1.0000    0     1.008   12.698960   23.168042   27.401029
  88 O     8.0000    0    15.999   17.120919    9.165172   29.800981
  89 H     1.0000    0     1.008   18.084679    7.747877   29.309652
  90 H     1.0000    0     1.008   18.557111   10.223418   30.386796
  91 O     8.0000    0    15.999   22.128693   25.738070   11.791891
  92 H     1.0000    0     1.008   21.996412   24.755412   13.341467
  93 H     1.0000    0     1.008   21.202727   24.849899   10.525775
  94 O     8.0000    0    15.999   14.607583   29.441933   12.169836
  95 H     1.0000    0     1.008   14.758761   27.797871   12.661165
  96 H     1.0000    0     1.008   13.209186   29.744289   10.998206
  97 Q     0.6645    0     0.000   23.583782   32.314317   23.942830
  98 Q     0.6645    0     0.000   26.172707   33.259180   23.508193
  99 Q    -1.3290    0     0.000   24.660926   33.372564   23.508193
 100 Q     0.6645    0     0.000   11.357254    8.031336   25.284536
 101 Q     0.6645    0     0.000   13.190288    8.692740   23.243631
 102 Q    -1.3290    0     0.000   11.961966    8.938405   24.150700
 103 Q     0.6645    0     0.000   32.106447   24.585337   31.407248
 104 Q     0.6645    0     0.000   34.563091   25.435714   32.692262
 105 Q    -1.3290    0     0.000   32.975721   25.379022   32.522187
 106 Q     0.6645    0     0.000   38.833872   19.766535   13.360364
 107 Q     0.6645    0     0.000   38.796078   16.950843   12.755651
 108 Q    -1.3290    0     0.000   39.249612   18.216960   13.568234
 109 Q     0.6645    0     0.000   14.891042   32.465495   14.191843
 110 Q     0.6645    0     0.000   16.875254   34.260735   14.702069
 111 Q    -1.3290    0     0.000   15.892597   33.164694   15.174501
 112 Q     0.6645    0     0.000   20.635809   13.454850   32.919029
 113 Q     0.6645    0     0.000   22.714508   12.226528   30.859228
 114 Q    -1.3290    0     0.000   21.183830   12.642268   31.520632
 115 Q     0.6645    0     0.000   35.337879   16.119364   32.295420
 116 Q     0.6645    0     0.000   34.959933   14.399713   34.657577
 117 Q    -1.3290    0     0.000   34.827653   15.779213   33.788303
 118 Q     0.6645    0     0.000   23.357015   20.314556    7.880158
 119 Q     0.6645    0     0.000   25.152255   21.070446    5.631384
 120 Q    -1.3290    0     0.000   23.791652   20.390145    6.330583
 121 Q     0.6645    0     0.000   33.372564   26.097118    9.921062
 122 Q     0.6645    0     0.000   31.237173   24.226289   10.941514
 123 Q    -1.3290    0     0.000   31.917474   25.435714    9.996651
 124 Q     0.6645    0     0.000    2.097596   18.840570   29.612009
 125 Q     0.6645    0     0.000    2.759000   15.949289   30.235618
 126 Q    -1.3290    0     0.000    1.927521   17.366583   30.386796
 127 Q     0.6645    0     0.000   14.154049   26.021529   38.266954
 128 Q     0.6645    0     0.000   14.210741   28.364789   39.892119
 129 Q    -1.3290    0     0.000   13.492645   27.325440   38.947256
 130 Q     0.6645    0     0.000    5.480206   31.596221   16.856357
 131 Q     0.6645    0     0.000    2.626719   32.049755   17.007535
 132 Q    -1.3290    0     0.000    4.195192   32.314317   17.442172
 133 Q     0.6645    0     0.000    5.045569   30.500180   23.602679
 134 Q     0.6645    0     0.000    3.911733   29.460830   20.957063
 135 Q    -1.3290    0     0.000    3.949528   29.876570   22.582227
 136 Q     0.6645    0     0.000    8.088028   12.774549   33.788303
 137 Q     0.6645    0     0.000    8.163617    9.996651   35.224495
 138 Q    -1.3290    0     0.000    8.088028   11.111590   33.939481
 139 Q     0.6645    0     0.000   28.667145   18.122474   25.133358
 140 Q     0.6645    0     0.000   26.871906   19.313001   26.947495
 141 Q    -1.3290    0     0.000   28.024639   19.388590   25.908145
 142 Q     0.6645    0     0.000   29.763187   28.837221   27.797871
 143 Q     0.6645    0     0.000   28.326995   31.048200   29.252961
 144 Q    -1.3290    0     0.000   28.534865   29.706495   28.326995
 145 Q     0.6645    0     0.000    9.108480   31.142687   32.824543
 146 Q     0.6645    0     0.000   10.658055   32.597776   30.424591
 147 Q    -1.3290    0     0.000    9.429733   31.822988   31.293865
 148 Q     0.6645    0     0.000   22.242077   23.659371   36.471714
 149 Q     0.6645    0     0.000   23.394810   22.960173   33.958379
 150 Q    -1.3290    0     0.000   22.733405   22.676714   35.375673
 151 Q     0.6645    0     0.000    3.514891   11.508432   29.139577
 152 Q     0.6645    0     0.000    4.818802   12.339912   31.331659
 153 Q    -1.3290    0     0.000    3.533788   12.188734   30.500180
 154 Q     0.6645    0     0.000   15.930391   37.170913   12.207631
 155 Q     0.6645    0     0.000   18.103576   36.981940   10.147829
 156 Q    -1.3290    0     0.000   17.290994   36.528406   11.527329
 157 Q     0.6645    0     0.000   19.426385   15.287884   36.490612
 158 Q     0.6645    0     0.000   17.442172   12.793446   36.320536
 159 Q    -1.3290    0     0.000   18.878364   13.606028   36.226050
 160 Q     0.6645    0     0.000   34.033968   28.308097   15.306782
 161 Q     0.6645    0     0.000   31.274968   28.686043   16.402823
 162 Q    -1.3290    0     0.000   32.805646   29.045091   16.081569
 163 Q     0.6645    0     0.000   39.192920   18.103576   17.517761
 164 Q     0.6645    0     0.000   37.813420   17.385480   19.917713
 165 Q    -1.3290    0     0.000   38.852769   18.311446   19.067337
 166 Q     0.6645    0     0.000    7.899055    8.522665   22.695611
 167 Q     0.6645    0     0.000    5.631384    7.521110   20.900371
 168 Q    -1.3290    0     0.000    7.105370    8.163617   21.335008
 169 Q     0.6645    0     0.000   27.457721   39.136228   11.395049
 170 Q     0.6645    0     0.000   25.416817   38.323646    9.694295
 171 Q    -1.3290    0     0.000   26.512858   38.077982   10.809233
 172 Q     0.6645    0     0.000   35.092214   12.132042   17.366583
 173 Q     0.6645    0     0.000   36.603995   10.015549   18.387035
 174 Q    -1.3290    0     0.000   35.318981   10.771439   18.141371
 175 Q     0.6645    0     0.000    2.815692   26.040426   19.369693
 176 Q     0.6645    0     0.000    4.119603   27.004186   16.856357
 177 Q    -1.3290    0     0.000    4.062911   26.456166   18.368138
 178 Q     0.6645    0     0.000    2.154288   19.804330   25.511303
 179 Q     0.6645    0     0.000    0.623610   22.260974   26.134912
 180 Q    -1.3290    0     0.000    1.587370   20.957063   26.456166
 181 Q     0.6645    0     0.000   20.843679   13.076905    8.673843
 182 Q     0.6645    0     0.000   21.448392   16.157158    9.013994
 183 Q    -1.3290    0     0.000   20.862577   14.739864    8.258103
 184 Q     0.6645    0     0.000   30.254515   20.862577   28.005741
 185 Q     0.6645    0     0.000   32.937927   20.957063   28.893913
 186 Q    -1.3290    0     0.000   31.426146   21.410597   28.969502
 187 Q     0.6645    0     0.000    7.974644   26.002632   25.908145
 188 Q     0.6645    0     0.000    5.801459   27.155365   27.514413
 189 Q    -1.3290    0     0.000    7.294343   26.664036   27.230954
 190 Q     0.6645    0     0.000    2.305466   18.141371   13.624925
 191 Q     0.6645    0     0.000    4.875493   18.689391   14.739864
 192 Q    -1.3290    0     0.000    3.873939   18.198063   13.643823
 193 Q     0.6645    0     0.000    5.177850    7.521110   26.569549
 194 Q     0.6645    0     0.000    6.935295    9.864370   26.475063
 195 Q    -1.3290    0     0.000    5.574692    9.089583   26.682933
 196 Q     0.6645    0     0.000   15.798110   24.887693   34.506399
 197 Q     0.6645    0     0.000   17.631145   25.643584   36.849660
 198 Q    -1.3290    0     0.000   16.724076   24.717618   35.942591
 199 Q     0.6645    0     0.000   25.794762   35.507954   30.160029
 200 Q     0.6645    0     0.000   25.700275   33.750509   32.389906
 201 Q    -1.3290    0     0.000   26.418371   34.752064   31.426146
 202 Q     0.6645    0     0.000   16.383926    2.664514   25.700275
[...]
 344   Q   :   -0.258184557   -0.023183808    0.142671959
 345   Q   :    0.217013414   -0.129247919    0.016891970
 346   Q   :    0.044066776    0.136642912   -0.167786486
 347   Q   :   -0.225818320   -0.104871335   -0.165566567
 348   Q   :    0.064269659   -0.101327225    0.242374831
 349   Q   :    0.153869232    0.196397554   -0.094020720
 350   Q   :   -0.061634723   -0.254789747    0.097011736
 351   Q   :    0.208703932    0.159935567    0.152158092
 352   Q   :   -0.151125277    0.093959709   -0.249438054
 353   Q   :    0.278579915   -0.107562105   -0.055218211
 354   Q   :   -0.204022570   -0.149775758    0.144580627
 355   Q   :   -0.067978132    0.250764556   -0.090517599
 356   Q   :   -0.175104017   -0.098126090   -0.264694363
 357   Q   :   -0.101814434   -0.111464435    0.242354737
 358   Q   :    0.281928085    0.216238906    0.021216538
 359   Q   :   -0.082470649   -0.276316904   -0.010828066
 360   Q   :    0.161044462    0.127835267    0.182480708
 361   Q   :   -0.078172813    0.143625287   -0.183962280
 362   Q   :    0.207751017   -0.119927585   -0.138398525
 363   Q   :   -0.070042560    0.263504137    0.078529998
 364   Q   :   -0.138309284   -0.130614044    0.062178509
 365   Q   :    0.173573959   -0.213896944    0.112631831
 366   Q   :    0.059360526    0.247542739   -0.044971562
 367   Q   :   -0.238478963   -0.042984475   -0.072797696
 368   Q   :    0.220932385   -0.068598312    0.100486381
 369   Q   :   -0.062098377    0.095963855   -0.264330845
 370   Q   :   -0.168069278   -0.028314576    0.160496741
 371   Q   :    0.169678990    0.171169390   -0.131736539
 372   Q   :   -0.096038792    0.028139960    0.241770071
 373   Q   :   -0.067378640   -0.209853593   -0.113517953
 374   Q   :    0.175163445   -0.150475207   -0.171345818
 375   Q   :   -0.261924388    0.029559476   -0.055548223
 376   Q   :    0.091151514    0.125594348    0.219739772
 377   Q   :   -0.181934934    0.108060066    0.174397189
 378   Q   :   -0.101627974   -0.161547310   -0.242248799
 379   Q   :    0.288812904    0.056644077    0.081123522
 380   Q   :    0.174982643   -0.002979045    0.190605029
 381   Q   :   -0.077604280   -0.259345351   -0.127509593
 382   Q   :   -0.102754475    0.263998295   -0.063752511
 383   Q   :   -0.054793373   -0.254131917   -0.066910088
 384   Q   :   -0.120356451    0.220074991   -0.121440137
 385   Q   :    0.173006723    0.026065494    0.194036992
 386   Q   :    0.034132413   -0.261086683    0.005941143
 387   Q   :   -0.186850564    0.154644858    0.145953584
 388   Q   :    0.157307018    0.109262930   -0.152352363
 389   Q   :    0.159465079   -0.152752856    0.155570613
 390   Q   :    0.027739341    0.283206438   -0.068760807
 391   Q   :   -0.186802566   -0.122068842   -0.086485251
 392   Q   :   -0.039974214   -0.174041140    0.185260426
 393   Q   :   -0.153772505    0.202610726   -0.096569979
 394   Q   :    0.193665065   -0.027963899   -0.074776615
 395   Q   :    0.050208487   -0.024600669   -0.251141979
 396   Q   :   -0.225037225    0.233982159    0.103094098
 397   Q   :    0.168769310   -0.207414081    0.153419617
 398   Q   :    0.099670034    0.167237546   -0.202448899
 399   Q   :   -0.243555118   -0.129404765   -0.039510250
 400   Q   :    0.140917796   -0.046703122    0.241462878
 401   Q   :    0.012241132   -0.088475223   -0.276771910
 402   Q   :   -0.219518126    0.142069515    0.078631823
 403   Q   :    0.207908931   -0.063414384    0.190545111
 404   Q   :   -0.165565406   -0.015204147    0.258203925
 405   Q   :    0.251831240   -0.152670296   -0.042665695
 406   Q   :   -0.089911794    0.160241057   -0.209504407
 407   Q   :    0.007634693    0.263023174   -0.144106186
 408   Q   :   -0.102120468   -0.246051515   -0.102850868
 409   Q   :    0.100007245   -0.015863023    0.249378096
 410   Q   :    0.248688869   -0.069560207   -0.106492989
 411   Q   :   -0.076715273    0.121465582    0.191932356
 412   Q   :   -0.174417174   -0.053541381   -0.096391556
 413   Q   :   -0.019129402    0.239827001   -0.147247089
 414   Q   :    0.083352344   -0.187741414   -0.052499802
 415   Q   :   -0.076365587   -0.027795148    0.192273858
 416   Q   :    0.022807592   -0.295408660    0.059570384
 417   Q   :   -0.247424700    0.135314228   -0.053042704
 418   Q   :    0.219763351    0.155599201   -0.010888247
 419   Q   :   -0.027280158   -0.232479791    0.063881574
 420   Q   :    0.180698133    0.140302558   -0.042672116
 421   Q   :   -0.156544028    0.093605028   -0.007543858
 422   Q   :    0.057092331    0.172724807    0.257904594
 423   Q   :    0.070319656   -0.313291398    0.017125490
 424   Q   :   -0.120480741    0.138395815   -0.268779884
 425   Q   :    0.286743166    0.106389253    0.070866863
 426   Q   :   -0.249370837    0.112365538    0.131867928
 427   Q   :   -0.039704532   -0.209773720   -0.199604122
 428   Q   :    0.137458884    0.217794568   -0.057573118
 429   Q   :   -0.009842111   -0.135086280    0.214133392
 430   Q   :   -0.134300354   -0.078975484   -0.159550017
 431   Q   :    0.221063798   -0.145199942   -0.027353881
 432   Q   :   -0.185373266    0.052087007   -0.120201333
 433   Q   :   -0.028072230    0.097207102    0.147677968
 434   Q   :    0.130001853   -0.106983818    0.220458326
 435   Q   :   -0.212351329    0.220484151    0.004140806
 436   Q   :    0.085916661   -0.105958644   -0.217260915
 437   Q   :   -0.068842991   -0.006574373    0.242790060
 438   Q   :   -0.143167102   -0.050053959   -0.205508616
 439   Q   :    0.205885834    0.053105522   -0.043860839
 440   Q   :    0.115914852    0.191845221    0.183217275
 441   Q   :    0.048179292    0.030881210   -0.291965537
 442   Q   :   -0.166297897   -0.226658061    0.094747129
 443   Q   :    0.014046524    0.201922224   -0.175992210
 444   Q   :    0.163167376   -0.243846891   -0.002290346
 445   Q   :   -0.176878126    0.044569743    0.185159252
 446   Q   :    0.214185957    0.154027088    0.084466511
 447   Q   :   -0.147248891    0.037502069   -0.233598211
 448   Q   :   -0.069721774   -0.186982501    0.148651445
 449   Q   :   -0.160545885    0.069297334    0.171175039
 450   Q   :    0.035937073   -0.265504296   -0.083770557
 451   Q   :    0.126775377    0.202087239   -0.091579876
 452   Q   :    0.187382653    0.180179315    0.016717931
 453   Q   :   -0.105486288   -0.119627980   -0.205464673
 454   Q   :   -0.076256885   -0.053856281    0.186628558
 455   Q   :   -0.105984099    0.154973459    0.233550996
 456   Q   :    0.270932409   -0.061967451   -0.061162639
 457   Q   :   -0.167403085   -0.084427864   -0.170262200
 458   Q   :   -0.054486192    0.197438720   -0.116875035
 459   Q   :    0.204799935   -0.134228867    0.013920164
 460   Q   :   -0.145352453   -0.061826368    0.096785704
 461   Q   :   -0.016824976   -0.030303501   -0.288040103
 462   Q   :    0.207665520    0.004138919    0.172459645
 463   Q   :   -0.188848890    0.025506312    0.113853896
 464   Q   :    0.155681823   -0.182312058    0.130140909
 465   Q   :   -0.020126871    0.267968426    0.015384535
 466   Q   :   -0.127016714   -0.096088174   -0.142105261
 467   Q   :    0.162112187   -0.228989561    0.096497794
 468   Q   :    0.105557222    0.274089236    0.001255801
 469   Q   :   -0.268181556   -0.047555234   -0.094914725
 470   Q   :    0.152810700   -0.183614547    0.191434311
 471   Q   :    0.015233574   -0.033064394   -0.268941500
 472   Q   :   -0.164844156    0.216891930    0.086892915
 473   Q   :    0.133251865    0.224950334    0.161874192
 474   Q   :    0.109032171   -0.307553886    0.030505929
 475   Q   :   -0.246923959    0.080684441   -0.193409915
 476   Q   :    0.149500108   -0.064657385    0.265159963
 477   Q   :    0.062606672   -0.097571431   -0.250894040
 478   Q   :   -0.209565954    0.153284538   -0.008883506
 479   Q   :    0.070435637   -0.071620543    0.260128571
 480   Q   :   -0.249746554    0.102381880   -0.083822579
 481   Q   :    0.186863105   -0.031293903   -0.181971718
 482   Q   :    0.115418455   -0.220738241   -0.043243258
 483   Q   :   -0.271420764    0.066622611   -0.109822132
 484   Q   :    0.150560993    0.162822830    0.170209739
 485   Q   :    0.045850355   -0.139446162    0.231642595
 486   Q   :   -0.298570550    0.035161324   -0.123116700
 487   Q   :    0.245781533    0.111801509   -0.110764596
 488   Q   :    0.127664139   -0.013430252   -0.241789113
 489   Q   :   -0.161749213   -0.260536891    0.095165006
 490   Q   :    0.037364546    0.270475307    0.144852501
 491   Q   :    0.152473369    0.002407112    0.203556521
 492   Q   :   -0.098416946   -0.198211552   -0.178957511
 493   Q   :   -0.043543611    0.184688346   -0.032964632
 494   Q   :    0.273697318   -0.020838310    0.119191956
 495   Q   :   -0.051333910    0.179738273   -0.219388134
 496   Q   :   -0.216506061   -0.145611645    0.104412338
 497   Q   :    0.274507960    0.084607413   -0.099904952
 498   Q   :   -0.174585613    0.182207907    0.079204183
 499   Q   :   -0.085055649   -0.264599013    0.006140668
 500   Q   :   -0.004100846    0.279758109    0.092977183
 501   Q   :   -0.202725698   -0.129851140   -0.193367470
 502   Q   :    0.204936821   -0.152136153    0.097648750
 503   Q   :   -0.186317975    0.111291108    0.179386272
 504   Q   :   -0.021555732   -0.027917735   -0.285001570
 505   Q   :    0.213103222   -0.077788060    0.101224333
 506   Q   :    0.028046875   -0.165090784    0.194132227
 507   Q   :    0.128241670    0.026375803   -0.230001945
 508   Q   :   -0.149555446    0.132553209    0.043609560
 509   Q   :    0.000394585   -0.255499330    0.069394954
 510   Q   :   -0.100718010    0.086738782   -0.250003050
 511   Q   :    0.114939626    0.173193720    0.190207014
 512   Q   :    0.185527132   -0.181685846    0.013446999
 513   Q   :   -0.037254517    0.175707514   -0.221923015
 514   Q   :   -0.151578245    0.008674182    0.202852139
 515   Q   :   -0.131618358    0.223210858   -0.163034850
 516   Q   :   -0.151840231   -0.189580111    0.150778424
 517   Q   :    0.280266203   -0.043500424    0.006152329
 518   Q   :    0.263740181    0.100330046    0.054829823
 519   Q   :   -0.244574614    0.159733185   -0.013298947
 520   Q   :   -0.023988696   -0.262997933   -0.039685934
 521   Q   :    0.131791361   -0.056095472   -0.233149172
 522   Q   :   -0.285227223   -0.022244239    0.025891431
 523   Q   :    0.159532136    0.063345463    0.208333110
 524   Q   :    0.229281126   -0.179221702    0.072377237
 525   Q   :   -0.088021642    0.237173354    0.115961286
 526   Q   :   -0.150115721   -0.056095651   -0.189311573
 527   Q   :   -0.018676625    0.212635226   -0.196980095
 528   Q   :   -0.187762382   -0.210494460    0.022307488
 529   Q   :    0.198218550   -0.011200866    0.189599798
 530   Q   :   -0.272455632    0.010432288   -0.145345686
 531   Q   :    0.225515336    0.026068221   -0.140489316
 532   Q   :    0.042694307   -0.035121311    0.289693490
 533   Q   :   -0.266001716    0.089085217    0.087839924
 534   Q   :    0.228799608    0.148861701   -0.077869708
 535   Q   :    0.034554169   -0.229059129   -0.016726165
 536   Q   :   -0.275166831    0.108744466   -0.113100329
 537   Q   :    0.035986618   -0.303573462    0.048447127
 538   Q   :    0.244895723    0.183251201    0.052095651
 539   Q   :   -0.226969519   -0.075322268   -0.118747708
 540   Q   :    0.147233677    0.258897431   -0.045198413
 541   Q   :    0.065665645   -0.185687112    0.168532816
 542   Q   :   -0.181826300    0.147279739   -0.197334496
 543   Q   :    0.230328131   -0.070570543   -0.089456271
 544   Q   :   -0.059681293   -0.070138457    0.296831775
 545   Q   :   -0.212751640   -0.207356292   -0.014869165
 546   Q   :    0.093288230    0.115013776    0.251371078
 547   Q   :    0.107980334    0.099034426   -0.234599737
 548   Q   :    0.065260562   -0.250749295   -0.093488488
 549   Q   :    0.116459798    0.245896651   -0.102046658
 550   Q   :   -0.189032805    0.003435053    0.188844910
 551   Q   :   -0.283453930   -0.007138398   -0.116762215
 552   Q   :    0.166756101    0.224990116   -0.055935409
 553   Q   :    0.104064413   -0.212517848    0.173830883
 554   Q   :    0.009980998    0.180033134    0.227566903
 555   Q   :   -0.024457315    0.079585376   -0.268261005
 556   Q   :    0.020693617   -0.268799697    0.043560683
 557   Q   :    0.187945084    0.044409680   -0.221089882
 558   Q   :    0.009072270   -0.276654588    0.165660427
 559   Q   :   -0.198508652    0.229655042    0.054502220
 560   Q   :   -0.257382037   -0.129512101   -0.035047558
 561   Q   :    0.104301792    0.141306084   -0.234191279
 562   Q   :    0.152827217   -0.010565846    0.277887162
 563   Q   :    0.088452734    0.185010191    0.153121864
 564   Q   :   -0.167132956   -0.197415548    0.056433849
 565   Q   :    0.081913564   -0.000151227   -0.215953580
 566   Q   :    0.113249128    0.263793445   -0.130658676
 567   Q   :    0.203812644   -0.259670591    0.030471436
 568   Q   :   -0.324585748   -0.014103493    0.105341546
 569   Q   :    0.251822113    0.119994093    0.039761132
 570   Q   :   -0.237958337    0.115842642   -0.048829229
 571   Q   :   -0.016584881   -0.234784775    0.011249628
 572   Q   :    0.277609245    0.117674151   -0.006063395
 573   Q   :   -0.086626439   -0.222768358   -0.104314143
 574   Q   :   -0.180421246    0.111108242    0.112741173
 575   Q   :   -0.044602379   -0.037874071   -0.244141504
 576   Q   :    0.220017464   -0.110262163    0.175956677
 577   Q   :   -0.160946419    0.150447097    0.079497399
 578   Q   :    0.045388998   -0.229436815   -0.141438939
 579   Q   :   -0.218891943    0.191117764   -0.032346276
 580   Q   :    0.179531063    0.035345981    0.165839563
 581   Q   :   -0.011055697    0.258822828   -0.015307055
 582   Q   :    0.171821536   -0.158951292    0.161286083
 583   Q   :   -0.157661503   -0.104667581   -0.154682029
 584   Q   :    0.154918280    0.268579114   -0.013883775
 585   Q   :    0.040749927   -0.190075520    0.210432537
 586   Q   :   -0.206547026   -0.076163720   -0.194809149
 587   Q   :   -0.012845877    0.191760000   -0.205997007
 588   Q   :    0.146403811   -0.016444820    0.190688434
 589   Q   :   -0.130985999   -0.167301955    0.011590766
 590   Q   :    0.183456825    0.196095355   -0.049987815
 591   Q   :   -0.022601546   -0.229850785   -0.116037434
 592   Q   :   -0.158495672    0.044290361    0.172243150
 593   Q   :   -0.056070632   -0.262038782    0.004108439
 594   Q   :    0.164430687    0.156404359    0.162532245
 595   Q   :   -0.104653499    0.113827910   -0.170071341
 596   Q   :    0.109517160    0.032753407    0.278006517
 597   Q   :    0.158195284   -0.104439917   -0.241784620
 598   Q   :   -0.269415337    0.074071836   -0.046562091
 599   Q   :    0.035582733   -0.208629997   -0.151252932
 600   Q   :    0.076020398    0.069289471    0.217229105
 601   Q   :   -0.113906671    0.133486224   -0.072334452
 602   Q   :    0.056131199    0.230980460   -0.028255302
 603   Q   :   -0.250196571   -0.151392288   -0.040070166
 604   Q   :    0.176863449   -0.075520220    0.066756540
 605   Q   :    0.149393703    0.185163900    0.156831287
 606   Q   :   -0.110195469    0.028776673   -0.230387095
 607   Q   :   -0.041813837   -0.201039168    0.079378683
 608   Q   :    0.014638022    0.180097403    0.233729287
 609   Q   :    0.110111170    0.080493920   -0.264933425
 610   Q   :   -0.121731060   -0.263086948    0.022500725
 611   Q   :   -0.058890890    0.277567801    0.077706861
 612   Q   :   -0.140626932   -0.224404474    0.077535214
 613   Q   :    0.202287908   -0.054865143   -0.146445572
 614   Q   :   -0.055971879   -0.210216147   -0.119795362
 615   Q   :    0.000234899    0.250242755   -0.098934330
 616   Q   :    0.053287670   -0.021317248    0.218043519
 617   Q   :    0.008572145    0.053311347   -0.258438731
 618   Q   :    0.182915276    0.113539974    0.184455484
 619   Q   :   -0.184972925   -0.167912167    0.081451745
 620   Q   :   -0.117640657   -0.036870090   -0.257308534
 621   Q   :   -0.026079393   -0.150595767    0.226820379
 622   Q   :    0.146389784    0.183380133    0.026900705
 623   Q   :   -0.182113908   -0.126855835   -0.133368276
 624   Q   :    0.266947706   -0.068100070    0.015368645
 625   Q   :   -0.082277274    0.197934542    0.109893638
 626   Q   :    0.213086819   -0.148282056   -0.011608559
 627   Q   :   -0.210820696   -0.006377768   -0.165909558
 628   Q   :   -0.006864795    0.156892625    0.166466109
 629   Q   :    0.141644917   -0.236710776   -0.071073973
 630   Q   :    0.082810663    0.274718221   -0.021593723
 631   Q   :   -0.225696719   -0.038412951    0.092689878
 632   Q   :    0.142396681   -0.221159871    0.092958564
 633   Q   :   -0.300187420    0.017590468    0.039173805
 634   Q   :    0.144374994    0.203535680   -0.124341006

Difference to translation invariance:
           :    0.0002202105    0.0002949172   -0.0003662788

Difference to rotation invariance:
           :   -0.0114787213    0.0132579104   -0.0006067855

Norm of the cartesian gradient     ...    6.3549983555
RMS gradient                       ...    0.1457169882
MAX gradient                       ...    0.3245857479

-------
TIMINGS
-------

Total SCF gradient time            ...      171.116 sec

One electron gradient       ....      24.406 sec  ( 14.3%)
RI-J Coulomb gradient       ....       9.178 sec  (  5.4%)
COSX gradient               ....     103.736 sec  ( 60.6%)
XC gradient                 ....      14.766 sec  (  8.6%)

Maximum memory used throughout the entire SCFGRAD-calculation: 691.9 MB

                            ***************************************
                            *     ORCA property calculations      *
                            ***************************************

                                    ---------------------
                                    Active property flags
                                    ---------------------
   (+) Dipole Moment


------------------------------------------------------------------------------
                       ORCA ELECTRIC PROPERTIES CALCULATION
------------------------------------------------------------------------------

Dipole Moment Calculation                       ... on
Quadrupole Moment Calculation                   ... off
Polarizability Calculation                      ... off
GBWName                                         ... final009.orca.gbw
Electron density                                ... final009.orca.scfp
The origin for moment calculation is the CENTER OF MASS  = (18.300297, 19.983310 20.490695)

-------------
DIPOLE MOMENT
-------------
                                X             Y             Z
Electronic contribution:     -0.53880      -0.62257      -0.27967
Nuclear contribution   :     13.33815      -4.44121     -14.18482
                        -----------------------------------------
Total Dipole Moment    :     12.79936      -5.06378     -14.46448
                        -----------------------------------------
Magnitude (a.u.)       :     19.96714
Magnitude (Debye)      :     50.75244



--------------------
Rotational spectrum 
--------------------
 
Rotational constants in cm-1:     0.002336     0.001796     0.001432 
Rotational constants in MHz :    70.042565    53.844864    42.925894 

 Dipole components along the rotational axes: 
x,y,z [a.u.] :     3.362016    19.092469     4.781337 
x,y,z [Debye]:     8.545565    48.529200    12.153192 

 

Timings for individual modules:

Sum of individual times         ...      734.832 sec (=  12.247 min)
GTO integral calculation        ...       12.545 sec (=   0.209 min)   1.7 %
SCF iterations                  ...      546.720 sec (=   9.112 min)  74.4 %
SCF Gradient evaluation         ...      175.567 sec (=   2.926 min)  23.9 %
                             ****ORCA TERMINATED NORMALLY****
TOTAL RUN TIME: 0 days 0 hours 12 minutes 22 seconds 471 msec
