
                                 *****************
                                 * O   R   C   A *
                                 *****************

                                            #,                                       
                                            ###                                      
                                            ####                                     
                                            #####                                    
                                            ######                                   
                                           ########,                                 
                                     ,,################,,,,,                         
                               ,,#################################,,                 
                          ,,##########################################,,             
                       ,#########################################, ''#####,          
                    ,#############################################,,   '####,        
                  ,##################################################,,,,####,       
                ,###########''''           ''''###############################       
              ,#####''   ,,,,##########,,,,          '''####'''          '####       
            ,##' ,,,,###########################,,,                        '##       
           ' ,,###''''                  '''############,,,                           
         ,,##''                                '''############,,,,        ,,,,,,###''
      ,#''                                            '''#######################'''  
     '                                                          ''''####''''         
             ,#######,   #######,   ,#######,      ##                                
            ,#'     '#,  ##    ##  ,#'     '#,    #''#        ######   ,####,        
            ##       ##  ##   ,#'  ##            #'  '#       #        #'  '#        
            ##       ##  #######   ##           ,######,      #####,   #    #        
            '#,     ,#'  ##    ##  '#,     ,#' ,#      #,         ##   #,  ,#        
             '#######'   ##     ##  '#######'  #'      '#     #####' # '####'        



                  #######################################################
                  #                        -***-                        #
                  #          Department of theory and spectroscopy      #
                  #    Directorship and core code : Frank Neese         #
                  #        Max Planck Institute fuer Kohlenforschung    #
                  #                Kaiser Wilhelm Platz 1               #
                  #                 D-45470 Muelheim/Ruhr               #
                  #                      Germany                        #
                  #                                                     #
                  #                  All rights reserved                #
                  #                        -***-                        #
                  #######################################################


                         Program Version 5.0.3 -  RELEASE  -


 With contributions from (in alphabetic order):
   Daniel Aravena         : Magnetic Suceptibility
   Michael Atanasov       : Ab Initio Ligand Field Theory (pilot matlab implementation)
   Alexander A. Auer      : GIAO ZORA, VPT2 properties, NMR spectrum
   Ute Becker             : Parallelization
   Giovanni Bistoni       : ED, misc. LED, open-shell LED, HFLD
   Martin Brehm           : Molecular dynamics
   Dmytro Bykov           : SCF Hessian
   Vijay G. Chilkuri      : MRCI spin determinant printing, contributions to CSF-ICE
   Dipayan Datta          : RHF DLPNO-CCSD density
   Achintya Kumar Dutta   : EOM-CC, STEOM-CC
   Dmitry Ganyushin       : Spin-Orbit,Spin-Spin,Magnetic field MRCI
   Miquel Garcia          : C-PCM and meta-GGA Hessian, CC/C-PCM, Gaussian charge scheme
   Yang Guo               : DLPNO-NEVPT2, F12-NEVPT2, CIM, IAO-localization
   Andreas Hansen         : Spin unrestricted coupled pair/coupled cluster methods
   Benjamin Helmich-Paris : MC-RPA, TRAH-SCF, COSX integrals
   Lee Huntington         : MR-EOM, pCC
   Robert Izsak           : Overlap fitted RIJCOSX, COSX-SCS-MP3, EOM
   Marcus Kettner         : VPT2
   Christian Kollmar      : KDIIS, OOCD, Brueckner-CCSD(T), CCSD density, CASPT2, CASPT2-K
   Simone Kossmann        : Meta GGA functionals, TD-DFT gradient, OOMP2, MP2 Hessian
   Martin Krupicka        : Initial AUTO-CI
   Lucas Lang             : DCDCAS
   Marvin Lechner         : AUTO-CI (C++ implementation), FIC-MRCC
   Dagmar Lenk            : GEPOL surface, SMD
   Dimitrios Liakos       : Extrapolation schemes; Compound Job, initial MDCI parallelization
   Dimitrios Manganas     : Further ROCIS development; embedding schemes
   Dimitrios Pantazis     : SARC Basis sets
   Anastasios Papadopoulos: AUTO-CI, single reference methods and gradients
   Taras Petrenko         : DFT Hessian,TD-DFT gradient, ASA, ECA, R-Raman, ABS, FL, XAS/XES, NRVS
   Peter Pinski           : DLPNO-MP2, DLPNO-MP2 Gradient
   Christoph Reimann      : Effective Core Potentials
   Marius Retegan         : Local ZFS, SOC
   Christoph Riplinger    : Optimizer, TS searches, QM/MM, DLPNO-CCSD(T), (RO)-DLPNO pert. Triples
   Tobias Risthaus        : Range-separated hybrids, TD-DFT gradient, RPA, STAB
   Michael Roemelt        : Original ROCIS implementation
   Masaaki Saitow         : Open-shell DLPNO-CCSD energy and density
   Barbara Sandhoefer     : DKH picture change effects
   Avijit Sen             : IP-ROCIS
   Kantharuban Sivalingam : CASSCF convergence, NEVPT2, FIC-MRCI
   Bernardo de Souza      : ESD, SOC TD-DFT
   Georgi Stoychev        : AutoAux, RI-MP2 NMR, DLPNO-MP2 response
   Willem Van den Heuvel  : Paramagnetic NMR
   Boris Wezisla          : Elementary symmetry handling
   Frank Wennmohs         : Technical directorship


 We gratefully acknowledge several colleagues who have allowed us to
 interface, adapt or use parts of their codes:
   Stefan Grimme, W. Hujo, H. Kruse, P. Pracht,  : VdW corrections, initial TS optimization,
                  C. Bannwarth, S. Ehlert          DFT functionals, gCP, sTDA/sTD-DF
   Ed Valeev, F. Pavosevic, A. Kumar             : LibInt (2-el integral package), F12 methods
   Garnet Chan, S. Sharma, J. Yang, R. Olivares  : DMRG
   Ulf Ekstrom                                   : XCFun DFT Library
   Mihaly Kallay                                 : mrcc  (arbitrary order and MRCC methods)
   Jiri Pittner, Ondrej Demel                    : Mk-CCSD
   Frank Weinhold                                : gennbo (NPA and NBO analysis)
   Christopher J. Cramer and Donald G. Truhlar   : smd solvation model
   Lars Goerigk                                  : TD-DFT with DH, B97 family of functionals
   V. Asgeirsson, H. Jonsson                     : NEB implementation
   FAccTs GmbH                                   : IRC, NEB, NEB-TS, DLPNO-Multilevel, CI-OPT
                                                   MM, QMMM, 2- and 3-layer-ONIOM, Crystal-QMMM,
                                                   LR-CPCM, SF, NACMEs, symmetry and pop. for TD-DFT,
                                                   nearIR, NL-DFT gradient (VV10), updates on ESD,
                                                   ML-optimized integration grids
   S Lehtola, MJT Oliveira, MAL Marques          : LibXC Library
   Liviu Ungur et al                             : ANISO software


 Your calculation uses the libint2 library for the computation of 2-el integrals
 For citations please refer to: http://libint.valeyev.net

 Your ORCA version has been built with support for libXC version: 5.1.0
 For citations please refer to: https://tddft.org/programs/libxc/

 This ORCA versions uses:
   CBLAS   interface :  Fast vector & matrix operations
   LAPACKE interface :  Fast linear algebra routines
   SCALAPACK package :  Parallel linear algebra routines
   Shared memory     :  Shared parallel matrices
   BLAS/LAPACK       :  OpenBLAS 0.3.15  USE64BITINT DYNAMIC_ARCH NO_AFFINITY SkylakeX SINGLE_THREADED
        Core in use  :  SkylakeX
   Copyright (c) 2011-2014, The OpenBLAS Project


================================================================================

----- Orbital basis set information -----
Your calculation utilizes the basis: def2-SVP
   F. Weigend and R. Ahlrichs, Phys. Chem. Chem. Phys. 7, 3297 (2005).

The basis set includes element-specific modifications.

Your calculation utilizes the basis: aug-cc-pVTZ 
    H, B-Ne : Obtained from the ccRepo (grant-hill.group.shef.ac.uk/ccrepo) Feb. 2017
              R. A. Kendall, T. H. Dunning, Jr., R. J. Harrison, J. Chem. Phys. 96, 6796 (1992)
         He : Obtained from the ccRepo (grant-hill.group.shef.ac.uk/ccrepo) Feb. 2017
              D. E. Woon, T. H. Dunning, Jr., J. Chem. Phys. 100, 2975 (1994)
  Li-Be, Na : Obtained from the ccRepo (grant-hill.group.shef.ac.uk/ccrepo) Feb. 2017
              B. P. Prascher, D. E. Woon, K. A. Peterson, T. H. Dunning, Jr., A. K. Wilson, Theor. Chem. Acc. 128, 69 (2011)
         Mg : Obtained from the Peterson Research Group Website (tyr0.chem.wsu.edu/~kipeters) Feb. 2017
              B. P. Prascher, D. E. Woon, K. A. Peterson, T. H. Dunning, Jr., A. K. Wilson, Theor. Chem. Acc. 128, 69 (2011)
      Al-Ar : Obtained from the ccRepo (grant-hill.group.shef.ac.uk/ccrepo) Feb. 2017
              D. E. Woon, T. H. Dunning, Jr., J. Chem. Phys. 98, 1358 (1993)
      Sc-Zn : Obtained from the ccRepo (grant-hill.group.shef.ac.uk/ccrepo) Feb. 2017
              N. B. Balabanov, K. A. Peterson, J. Chem. Phys. 123, 064107 (2005)
              N. B. Balabanov, K. A. Peterson, J. Chem. Phys. 125, 074110 (2006)
      Ga-Kr : Obtained from the ccRepo (grant-hill.group.shef.ac.uk/ccrepo) Feb. 2017
              A. K. Wilson, D. E. Woon, K. A. Peterson, T. H. Dunning, Jr., J. Chem. Phys. 110, 7667 (1999)
     Ag, Au : Obtained from the Peterson Research Group Website (tyr0.chem.wsu.edu/~kipeters) Feb. 2017
              K. A. Peterson, C. Puzzarini, Theor. Chem. Acc. 114, 283 (2005)

Your calculation utilizes the basis: cc-pVTZ 
       H, B-Ne : Obtained from the ccRepo (grant-hill.group.shef.ac.uk/ccrepo) Feb. 2017
                 T. H. Dunning, Jr., J. Chem. Phys. 90, 1007 (1989)
            He : Obtained from the ccRepo (grant-hill.group.shef.ac.uk/ccrepo) Feb. 2017
                 D. E. Woon, T. H. Dunning, Jr., J. Chem. Phys. 100, 2975 (1994)
  Li-Be, Na-Mg : Obtained from the ccRepo (grant-hill.group.shef.ac.uk/ccrepo) Feb. 2017
                 B. P. Prascher, D. E. Woon, K. A. Peterson, T. H. Dunning, Jr., A. K. Wilson, Theor. Chem. Acc. 128, 69 (2011)
         Al-Ar : Obtained from the ccRepo (grant-hill.group.shef.ac.uk/ccrepo) Feb. 2017
                 D. E. Woon, T. H. Dunning, Jr., J. Chem. Phys. 98, 1358 (1993)
            Ca : Obtained from the Peterson Research Group Website (tyr0.chem.wsu.edu/~kipeters) Feb. 2017
                 J. Koput, K. A. Peterson, J. Phys. Chem. 106, 9595 (2002)
         Sc-Zn : Obtained from the ccRepo (grant-hill.group.shef.ac.uk/ccrepo) Feb. 2017
                 N. B. Balabanov, K. A. Peterson, J. Chem. Phys. 123, 064107 (2005)
                 N. B. Balabanov, K. A. Peterson, J. Chem. Phys. 125, 074110 (2006)
         Ga-Kr : Obtained from the ccRepo (grant-hill.group.shef.ac.uk/ccrepo) Feb. 2017
                 A. K. Wilson, D. E. Woon, K. A. Peterson, T. H. Dunning, Jr., J. Chem. Phys. 110, 7667 (1999)
             Y : Obtained from the ccRepo (grant-hill.group.shef.ac.uk/ccrepo) Feb. 2017
                 K. A. Peterson, D. Figgen, M. Dolg, H. Stoll, J. Chem. Phys. 126, 124101 (2007)
        Ag, Au : Obtained from the Peterson Research Group Website (tyr0.chem.wsu.edu/~kipeters) Feb. 2017
                 K. A. Peterson, C. Puzzarini, Theor. Chem. Acc. 114, 283 (2005)

----- AuxJ basis set information -----
Your calculation utilizes the auxiliary basis: def2/J
   F. Weigend, Phys. Chem. Chem. Phys. 8, 1057 (2006).

================================================================================
                                        WARNINGS
                       Please study these warnings very carefully!
================================================================================

WARNING: The globally-selected AuxJ basis set is optimized for use with ECPs
         Make sure a suitable alternative is explicitly given all heavy elements (Z>36)

INFO   : the flag for use of the SHARK integral package has been found!

================================================================================
                                       INPUT FILE
================================================================================
NAME = final083.orca.inp
|  1> ! NoMOPrint PrintBasis #MINIPRINT SMALLPRINT LARGEPRINT
|  2> ! ALLPOP XYZFILE
|  3> #! BP86 3-21G   TightSCF
|  4> ! ENGRAD
|  5> ! B3LYP NormalPNO PModel #DecontractAux
|  6> #! VerySlowConv 
|  7>  %maxcore 5000
|  8>  %scf  maxiter   500  end 
|  9> 
| 10> %pal
| 11>     nprocs 32
| 12> end
| 13> 
| 14> %basis
| 15>     NewGTO O    # New basis for oxygen
| 16>         "aug-cc-pVTZ"
| 17>     end
| 18>     NewGTO C    # New basis for carbon
| 19>         "aug-cc-pVTZ"
| 20>     end
| 21>     NewGTO H    # New basis for hydrogen
| 22>         "cc-pVTZ"
| 23>     end
| 24> end
| 25> 
| 26> * xyz 0   1
| 27>   C  10.25  10.67  9.05  #1
| 28>   H  9.24  10.52  9.56  #2
| 29>   H  10.71  9.78  8.77  #3
| 30>   C  11.24  11.23  10.11  #4
| 31>   H  12.25  10.96  9.76  #5
| 32>   H  11.06  12.3  10.21  #6
| 33>   C  10.96  10.55  11.5  #7
| 34>   H  11.49  9.57  11.43  #8
| 35>   H  9.95  10.33  11.67  #9
| 36>   C  11.65  11.21  12.69  #10
| 37>   H  11.75  12.31  12.46  #11
| 38>   H  12.64  10.84  12.67  #12
| 39>   O  10.93  10.81  13.94  #13
| 40>   H  11.34  11.23  14.69  #14
| 41>   O  10.05  11.63  7.97  #15
| 42>   H  9.71  11.1  7.19  #16
| 43>   O  14.57  11.63  15.71  #17
| 44>   H  14.08  10.82  15.66  #18
| 45>   H  14.12  12.38  15.33  #19
| 46>   O  10.53  13.45  5.26  #20
| 47>   H  9.85  14.15  5.28  #21
| 48>   H  9.99  12.76  5.68  #22
| 49>   O  13.06  14.18  11.44  #23
| 50>   H  13.32  14.72  10.69  #24
| 51>   H  13.77  13.94  11.99  #25
| 52>   O  9.18  11.04  5.06  #26
| 53>   H  9.62  10.23  4.78  #27
| 54>   H  8.3  10.85  5.4  #28
| 55>   O  12.21  13.85  15.13  #29
| 56>   H  12.81  14.47  15.63  #30
| 57>   H  11.66  13.48  15.77  #31
| 58>   O  14.6  11.7  10.18  #32
| 59>   H  14.34  10.77  10.43  #33
| 60>   H  13.85  12.24  10.38  #34
| 61>   O  14.62  15.75  15.03  #35
| 62>   H  14.84  15.11  14.34  #36
| 63>   H  14.09  16.51  14.73  #37
| 64>   O  8.51  15.07  5.38  #38
| 65>   H  8.48  14.93  6.37  #39
| 66>   H  7.65  14.71  5.04  #40
| 67>   O  13.33  12.86  18.28  #41
| 68>   H  13.52  12.19  18.99  #42
| 69>   H  13.46  12.35  17.49  #43
| 70>   O  13.46  12.77  5.75  #44
| 71>   H  13.79  11.9  5.76  #45
| 72>   H  12.65  12.82  6.23  #46
| 73>   O  17.3  12.19  14.95  #47
| 74>   H  16.63  12.11  15.62  #48
| 75>   H  17.66  13.05  15.03  #49
| 76>   O  10.1  8.26  3.95  #50
| 77>   H  9.26  8.63  3.66  #51
| 78>   H  10.5  8.12  3.11  #52
| 79>   O  6.64  10.77  11.67  #53
| 80>   H  7.19  9.98  11.43  #54
| 81>   H  6.99  11.5  11.12  #55
| 82>   O  12.58  15.46  17.99  #56
| 83>   H  13.36  16.04  17.87  #57
| 84>   H  12.89  14.54  17.86  #58
| 85>   O  13.37  16.2  9.67  #59
| 86>   H  14.1  15.87  9.14  #60
| 87>   H  12.57  16.22  9.19  #61
| 88>   O  14.05  8.77  10.3  #62
| 89>   H  13.86  8.22  11.08  #63
| 90>   H  14.65  8.09  9.92  #64
| 91>   O  12.84  9.07  7.46  #65
| 92>   H  12.04  8.58  7.27  #66
| 93>   H  13.15  8.9  8.35  #67
| 94>   O  9.26  14.05  8.42  #68
| 95>   H  8.64  14.04  9.13  #69
| 96>   H  9.63  13.17  8.37  #70
| 97>   O  11.4  15.77  12.92  #71
| 98>   H  12.03  15.08  12.59  #72
| 99>   H  10.86  15.3  13.5  #73
|100>   O  16.66  11.88  17.67  #74
|101>   H  15.82  11.51  17.32  #75
|102>   H  17.14  11.13  18.06  #76
|103>   O  9.14  8.77  13.78  #77
|104>   H  8.74  8.96  12.93  #78
|105>   H  9.71  9.54  14.07  #79
|106>   O  8.02  8.55  10.8  #80
|107>   H  7.66  8.54  9.86  #81
|108>   H  8.69  7.8  10.81  #82
|109>   O  10.31  12.81  16.93  #83
|110>   H  10.05  13.65  17.24  #84
|111>   H  9.5  12.58  16.36  #85
|112>   O  13.88  8.98  15.49  #86
|113>   H  12.93  8.82  15.71  #87
|114>   H  14.43  8.63  16.21  #88
|115>   O  11.36  11.91  2.82  #89
|116>   H  11.16  12.56  3.51  #90
|117>   H  11.85  11.24  3.26  #91
|118>   O  7.84  12.77  2.86  #92
|119>   H  8.36  12.42  3.61  #93
|120>   H  7.21  13.46  3.25  #94
|121>   O  15.31  13.66  12.85  #95
|122>   H  15.8  14.42  12.64  #96
|123>   H  16.07  13.12  13.21  #97
|124>   O  7.03  10.24  6.33  #98
|125>   H  6.37  10.82  6.68  #99
|126>   H  6.99  9.52  6.96  #100
|127>   Q  0.6645  17.2$  11.39$  7.3$
|128>   Q  0.6645  17.66$  12.52$  8.33$
|129>   Q  -1.3290  17.71$  12.04$  7.61$
|130>   Q  0.6645  12.07$  19.11$  2.82$
|131>   Q  0.6645  10.67$  18.37$  3.14$
|132>   Q  -1.3290  11.47$  18.69$  3.27$
|133>   Q  0.6645  15.26$  8.42$  20.79$
|134>   Q  0.6645  15.96$  9.29$  21.94$
|135>   Q  -1.3290  15.65$  8.59$  21.54$
|136>   Q  0.6645  10.7$  8.93$  16.84$
|137>   Q  0.6645  10.96$  7.49$  16.6$
|138>   Q  -1.3290  11.02$  8.32$  16.42$
|139>   Q  0.6645  1.45$  5.04$  5.96$
|140>   Q  0.6645  2.7$  5.82$  6.37$
|141>   Q  -1.3290  1.92$  5.58$  6.44$
|142>   Q  0.6645  14.87$  19.5$  14.41$
|143>   Q  0.6645  14.41$  18.67$  13.29$
|144>   Q  -1.3290  14.94$  18.87$  13.89$
|145>   Q  0.6645  16.34$  19.15$  9.81$
|146>   Q  0.6645  14.89$  19.06$  10.44$
|147>   Q  -1.3290  15.54$  19.41$  9.97$
|148>   Q  0.6645  12.18$  3.42$  3.39$
|149>   Q  0.6645  11.61$  4.82$  3.73$
|150>   Q  -1.3290  11.57$  4.01$  3.52$
|151>   Q  0.6645  15.2$  7.32$  12.79$
|152>   Q  0.6645  14.12$  7.92$  13.71$
|153>   Q  -1.3290  14.4$  7.44$  13.08$
|154>   Q  0.6645  10.08$  20.86$  8.42$
|155>   Q  0.6645  10.65$  21.89$  9.35$
|156>   Q  -1.3290  10.45$  21.13$  9.11$
|157>   Q  0.6645  5.25$  18.09$  13.21$
|158>   Q  0.6645  6.52$  18.45$  13.92$
|159>   Q  -1.3290  5.73$  18.54$  13.68$
|160>   Q  0.6645  17.09$  12.96$  3.9$
|161>   Q  0.6645  17.86$  13.65$  2.79$
|162>   Q  -1.3290  17.74$  13.09$  3.41$
|163>   Q  0.6645  5.61$  16.53$  1.8$
|164>   Q  0.6645  5.35$  17.11$  3.18$
|165>   Q  -1.3290  5.33$  16.5$  2.56$
|166>   Q  0.6645  17.72$  13.4$  10.29$
|167>   Q  0.6645  16.29$  12.82$  10.1$
|168>   Q  -1.3290  17$  13.27$  9.88$
|169>   Q  0.6645  8.32$  17.82$  4.51$
|170>   Q  0.6645  7.92$  17.39$  5.84$
|171>   Q  -1.3290  8.02$  17.96$  5.25$
|172>   Q  0.6645  5.52$  9.43$  12.54$
|173>   Q  0.6645  4.39$  8.85$  13.46$
|174>   Q  -1.3290  4.97$  8.85$  12.86$
|175>   Q  0.6645  3.97$  9.23$  21.28$
|176>   Q  0.6645  4.1$  9.94$  19.86$
|177>   Q  -1.3290  3.69$  9.54$  20.53$
|178>   Q  0.6645  2.07$  8.72$  10.41$
|179>   Q  0.6645  2.77$  8.66$  11.79$
|180>   Q  -1.3290  2.47$  9.02$  11.11$
|181>   Q  0.6645  4.81$  11.72$  8.08$
|182>   Q  0.6645  5.3$  13.12$  7.6$
|183>   Q  -1.3290  5.34$  12.29$  7.78$
|184>   Q  0.6645  6.65$  14$  10.01$
|185>   Q  0.6645  6.68$  12.82$  9.08$
|186>   Q  -1.3290  6.82$  13.22$  9.81$
|187>   Q  0.6645  3.84$  13.89$  11.64$
|188>   Q  0.6645  4.16$  12.56$  11.09$
|189>   Q  -1.3290  3.71$  13.08$  11.5$
|190>   Q  0.6645  14.06$  7.92$  0.65$
|191>   Q  0.6645  13.97$  6.32$  0.94$
|192>   Q  -1.3290  13.76$  7.18$  1$
|193>   Q  0.6645  11.86$  16.99$  14.78$
|194>   Q  0.6645  11.62$  17.7$  16.13$
|195>   Q  -1.3290  12.05$  17.51$  15.43$
|196>   Q  0.6645  15.82$  10.61$  9.01$
|197>   Q  0.6645  17.4$  10.45$  9.31$
|198>   Q  -1.3290  16.59$  10.25$  8.98$
|199>   Q  0.6645  17.95$  15.28$  13.52$
|200>   Q  0.6645  19.31$  14.67$  13.87$
|201>   Q  -1.3290  18.47$  14.68$  13.72$
|202>   Q  0.6645  8.55$  8.72$  18.28$
|203>   Q  0.6645  8.35$  10.14$  17.64$
|204>   Q  -1.3290  8.78$  9.54$  18.05$
|205>   Q  0.6645  6.2$  8.23$  14.25$
|206>   Q  0.6645  7.62$  8.21$  14.55$
|207>   Q  -1.3290  6.84$  8.03$  14.71$
|208>   Q  0.6645  17.52$  3.09$  9.93$
|209>   Q  0.6645  19.13$  3.4$  10.33$
|210>   Q  -1.3290  18.35$  3.35$  9.84$
|211>   Q  0.6645  4.96$  4.32$  5.13$
|212>   Q  0.6645  5.35$  3.46$  3.82$
|213>   Q  -1.3290  5.02$  4.11$  4.29$
|214>   Q  0.6645  5.1$  9.89$  1.27$
|215>   Q  0.6645  5.1$  8.43$  1.34$
|216>   Q  -1.3290  4.78$  9.15$  1.14$
|217>   Q  0.6645  7.82$  10.43$  20.31$
|218>   Q  0.6645  8.16$  11.95$  20.01$
|219>   Q  -1.3290  7.66$  11.27$  20.23$
|220>   Q  0.6645  16.44$  14.89$  9.29$
|221>   Q  0.6645  16.02$  15.35$  7.88$
|222>   Q  -1.3290  16.03$  15.37$  8.71$
|223>   Q  0.6645  6.95$  9.45$  2.86$
|224>   Q  0.6645  8.04$  9.74$  1.85$
|225>   Q  -1.3290  7.7$  9.36$  2.52$
|226>   Q  0.6645  12.05$  4.73$  8.28$
|227>   Q  0.6645  12.22$  5.86$  9.44$
|228>   Q  -1.3290  11.83$  5.33$  8.87$
|229>   Q  0.6645  14.32$  5.27$  15.18$
|230>   Q  0.6645  15.7$  4.86$  15.83$
|231>   Q  -1.3290  15.15$  5.03$  15.2$
|232>   Q  0.6645  19.98$  13.66$  11.04$
|233>   Q  0.6645  19.17$  13.45$  12.35$
|234>   Q  -1.3290  19.35$  13.33$  11.54$
|235>   Q  0.6645  14.45$  7.57$  2.89$
|236>   Q  0.6645  15.86$  7.6$  3.48$
|237>   Q  -1.3290  15.03$  7.73$  3.49$
|238>   Q  0.6645  6.08$  18.51$  4.75$
|239>   Q  0.6645  4.82$  17.74$  5.23$
|240>   Q  -1.3290  5.31$  18.18$  4.68$
|241>   Q  0.6645  12.41$  15.69$  2.28$
|242>   Q  0.6645  12.59$  15.95$  0.77$
|243>   Q  -1.3290  12.19$  15.99$  1.5$
|244>   Q  0.6645  9.15$  16.46$  2.87$
|245>   Q  0.6645  8.3$  17.55$  2.19$
|246>   Q  -1.3290  8.89$  17.25$  2.71$
|247>   Q  0.6645  0.7$  8.3$  8.55$
|248>   Q  0.6645  1.63$  7.14$  8.04$
|249>   Q  -1.3290  1.37$  7.77$  8.55$
|250>   Q  0.6645  7.9$  3.34$  4.99$
|251>   Q  0.6645  7.93$  1.85$  4.63$
|252>   Q  -1.3290  7.99$  2.51$  5.13$
|253>   Q  0.6645  18.34$  9.07$  18.71$
|254>   Q  0.6645  19.19$  10.13$  19.32$
|255>   Q  -1.3290  18.5$  9.85$  18.96$
|256>   Q  0.6645  17.93$  10.54$  14.27$
|257>   Q  0.6645  18.96$  9.36$  14.39$
|258>   Q  -1.3290  18.34$  9.83$  14.02$
|259>   Q  0.6645  6.89$  2.25$  10.08$
|260>   Q  0.6645  8.51$  2.17$  9.84$
|261>   Q  -1.3290  7.73$  2.05$  10.21$
|262>   Q  0.6645  7.69$  7.49$  19.74$
|263>   Q  0.6645  8.6$  6.6$  18.75$
|264>   Q  -1.3290  7.88$  6.97$  19.07$
|265>   Q  0.6645  4.26$  13.37$  19.41$
|266>   Q  0.6645  2.85$  13.02$  18.94$
|267>   Q  -1.3290  3.7$  13.14$  18.87$
|268>   Q  0.6645  17.27$  8.08$  13.11$
|269>   Q  0.6645  17.32$  7.37$  11.76$
|270>   Q  -1.3290  17.16$  7.43$  12.6$
|271>   Q  0.6645  11.46$  6.57$  7.39$
|272>   Q  0.6645  10.19$  6.98$  6.56$
|273>   Q  -1.3290  11.02$  6.98$  6.8$
|274>   Q  0.6645  20.81$  9.91$  9.71$
|275>   Q  0.6645  20.48$  8.38$  9.75$
|276>   Q  -1.3290  20.81$  9.11$  9.4$
|277>   Q  0.6645  9.65$  1.4$  12.96$
|278>   Q  0.6645  8.56$  1.96$  11.98$
|279>   Q  -1.3290  8.93$  1.79$  12.73$
|280>   Q  0.6645  0.76$  10.08$  4.87$
|281>   Q  0.6645  1.97$  10.95$  4.41$
|282>   Q  -1.3290  1.39$  10.69$  4.91$
|283>   Q  0.6645  15.97$  16.14$  16.05$
|284>   Q  0.6645  17.3$  16.91$  16.27$
|285>   Q  -1.3290  16.67$  16.39$  16.47$
|286>   Q  0.6645  20.24$  7.91$  12.14$
|287>   Q  0.6645  21.15$  9.05$  12.54$
|288>   Q  -1.3290  20.67$  8.41$  12.67$
|289>   Q  0.6645  3.81$  9.47$  7.92$
|290>   Q  0.6645  3.42$  9.92$  6.53$
|291>   Q  -1.3290  3.88$  9.52$  7.1$
|292>   Q  0.6645  13.61$  6.93$  4.82$
|293>   Q  0.6645  11.97$  6.88$  5.16$
|294>   Q  -1.3290  12.78$  6.67$  4.8$
|295>   Q  0.6645  9.48$  18.61$  11.72$
|296>   Q  0.6645  8.99$  20.06$  11.52$
|297>   Q  -1.3290  9.32$  19.42$  11.95$
|298>   Q  0.6645  2.7$  10.82$  8.79$
|299>   Q  0.6645  3.28$  10.43$  10.02$
|300>   Q  -1.3290  3.28$  10.87$  9.33$
|301>   Q  0.6645  3.42$  17.33$  6.89$
|302>   Q  0.6645  3.16$  16.34$  5.76$
|303>   Q  -1.3290  3.65$  16.82$  6.26$
|304>   Q  0.6645  5.11$  3.53$  9.13$
|305>   Q  0.6645  4.77$  2.05$  9.05$
|306>   Q  -1.3290  5.29$  2.73$  8.98$
|307>   Q  0.6645  6.18$  10.9$  18.94$
|308>   Q  0.6645  4.74$  11.42$  18.5$
|309>   Q  -1.3290  5.34$  10.87$  18.74$
|310>   Q  0.6645  12.92$  14.2$  4.35$
|311>   Q  0.6645  13.85$  14.34$  2.97$
|312>   Q  -1.3290  13.24$  14.53$  3.6$
|313>   Q  0.6645  7.29$  7.3$  7.67$
|314>   Q  0.6645  5.9$  7.88$  8.07$
|315>   Q  -1.3290  6.76$  7.84$  8.03$
|316>   Q  0.6645  13.67$  1.49$  10.49$
|317>   Q  0.6645  12.7$  1.84$  11.7$
|318>   Q  -1.3290  13.15$  1.96$  10.96$
|319>   Q  0.6645  6.19$  1.83$  15.57$
|320>   Q  0.6645  6.53$  3.31$  15.57$
|321>   Q  -1.3290  6.02$  2.66$  15.69$
|322>   Q  0.6645  9.79$  11.01$  -0.26$
|323>   Q  0.6645  10.14$  11.14$  1.26$
|324>   Q  -1.3290  9.88$  10.74$  0.54$
|325>   Q  0.6645  9.88$  3.26$  18.03$
|326>   Q  0.6645  11.18$  3.71$  17.24$
|327>   Q  -1.3290  10.35$  3.73$  17.46$
|328>   Q  0.6645  6.71$  9.38$  15.98$
|329>   Q  0.6645  6.06$  10.37$  16.97$
|330>   Q  -1.3290  6.46$  10.14$  16.26$
|331>   Q  0.6645  8.98$  19.27$  6.82$
|332>   Q  0.6645  9.94$  20.32$  6.14$
|333>   Q  -1.3290  9.39$  20.01$  6.72$
|334>   Q  0.6645  12.22$  20.39$  8.38$
|335>   Q  0.6645  12.84$  20.96$  7.09$
|336>   Q  -1.3290  12.83$  20.69$  7.88$
|337>   Q  0.6645  11.81$  7.57$  1.14$
|338>   Q  0.6645  10.95$  8.85$  0.89$
|339>   Q  -1.3290  11.12$  8.05$  1.14$
|340>   Q  0.6645  11.94$  6.95$  20.98$
|341>   Q  0.6645  11.5$  5.46$  21.09$
|342>   Q  -1.3290  11.75$  6.18$  20.66$
|343>   Q  0.6645  6.21$  19.32$  8.8$
|344>   Q  0.6645  7.21$  19.46$  9.9$
|345>   Q  -1.3290  6.7$  19.02$  9.36$
|346>   Q  0.6645  9.36$  4.94$  8.95$
|347>   Q  0.6645  9.44$  3.97$  7.86$
|348>   Q  -1.3290  9.03$  4.39$  8.44$
|349>   Q  0.6645  13.7$  5.67$  11.76$
|350>   Q  0.6645  13.14$  4.21$  11.61$
|351>   Q  -1.3290  13.13$  5.07$  11.54$
|352>   Q  0.6645  14.02$  9.49$  6.27$
|353>   Q  0.6645  14.9$  9.46$  4.88$
|354>   Q  -1.3290  14.65$  9.72$  5.71$
|355>   Q  0.6645  2.06$  15.35$  3.3$
|356>   Q  0.6645  3.49$  15.99$  3.38$
|357>   Q  -1.3290  2.74$  15.71$  3.65$
|358>   Q  0.6645  4.1$  10.97$  3.82$
|359>   Q  0.6645  3.65$  12.39$  4.28$
|360>   Q  -1.3290  3.67$  11.71$  3.77$
|361>   Q  0.6645  6.6$  8.39$  21.5$
|362>   Q  0.6645  8.2$  8.53$  21.58$
|363>   Q  -1.3290  7.43$  8.52$  21.21$
|364>   Q  0.6645  10.65$  17.07$  10.3$
|365>   Q  0.6645  10.53$  16.64$  11.71$
|366>   Q  -1.3290  10.27$  17.04$  11.04$
|367>   Q  0.6645  7.89$  14.11$  14.07$
|368>   Q  0.6645  7.38$  13.05$  13.05$
|369>   Q  -1.3290  7.5$  13.83$  13.35$
|370>   Q  0.6645  15.22$  2.41$  6.64$
|371>   Q  0.6645  14.59$  1.9$  7.94$
|372>   Q  -1.3290  14.58$  2.18$  7.16$
|373>   Q  0.6645  15.3$  13.78$  5.76$
|374>   Q  0.6645  16.73$  13.59$  6.23$
|375>   Q  -1.3290  16.11$  13.98$  5.81$
|376>   Q  0.6645  17.74$  10.97$  2.8$
|377>   Q  0.6645  16.26$  10.69$  2.67$
|378>   Q  -1.3290  17.08$  10.54$  2.49$
|379>   Q  0.6645  15.98$  5.21$  5.86$
|380>   Q  0.6645  16.53$  6.57$  6.53$
|381>   Q  -1.3290  16.16$  5.8$  6.51$
|382>   Q  0.6645  19.54$  16.9$  12.43$
|383>   Q  0.6645  18.96$  17.39$  13.77$
|384>   Q  -1.3290  19.54$  17.08$  13.24$
|385>   Q  0.6645  7.42$  15.48$  18.21$
|386>   Q  0.6645  8.4$  14.77$  19.09$
|387>   Q  -1.3290  7.82$  14.8$  18.51$
|388>   Q  0.6645  4.02$  15.66$  12.78$
|389>   Q  0.6645  5.08$  15.75$  11.65$
|390>   Q  -1.3290  4.33$  15.69$  11.97$
|391>   Q  0.6645  14.05$  17.72$  16.56$
|392>   Q  0.6645  15.32$  17.59$  17.5$
|393>   Q  -1.3290  14.48$  17.58$  17.3$
|394>   Q  0.6645  9.9$  7.05$  14.5$
|395>   Q  0.6645  9.24$  5.48$  14.61$
|396>   Q  -1.3290  9.76$  6.17$  14.33$
|397>   Q  0.6645  3.85$  6.62$  3.88$
|398>   Q  0.6645  2.48$  7.43$  3.73$
|399>   Q  -1.3290  3.29$  7.27$  4.02$
|400>   Q  0.6645  13.18$  17.49$  6.56$
|401>   Q  0.6645  12.2$  17.16$  5.39$
|402>   Q  -1.3290  12.43$  17.41$  6.17$
|403>   Q  0.6645  5.78$  6.24$  0.93$
|404>   Q  0.6645  6.87$  6.94$  1.81$
|405>   Q  -1.3290  6.11$  6.86$  1.4$
|406>   Q  0.6645  18.79$  6.53$  18.19$
|407>   Q  0.6645  18.06$  7.39$  17.15$
|408>   Q  -1.3290  18.26$  7.11$  17.92$
|409>   Q  0.6645  12.94$  18.66$  11.57$
|410>   Q  0.6645  13.63$  17.41$  10.99$
|411>   Q  -1.3290  13.55$  18.12$  11.49$
|412>   Q  0.6645  10.57$  15.37$  8.6$
|413>   Q  0.6645  11.34$  16.51$  7.62$
|414>   Q  -1.3290  11.01$  16.13$  8.36$
|415>   Q  0.6645  3.67$  7.06$  16.85$
|416>   Q  0.6645  2.31$  7.58$  17.31$
|417>   Q  -1.3290  2.88$  7.36$  16.73$
|418>   Q  0.6645  9.02$  15.26$  21.85$
|419>   Q  0.6645  8.9$  16.32$  20.73$
|420>   Q  -1.3290  9.15$  15.59$  21.09$
|421>   Q  0.6645  7.73$  4.63$  10.17$
|422>   Q  0.6645  7.91$  5.39$  11.38$
|423>   Q  -1.3290  7.42$  5.04$  10.84$
|424>   Q  0.6645  11.17$  15.64$  17.32$
|425>   Q  0.6645  9.92$  16.5$  17.55$
|426>   Q  -1.3290  10.36$  15.86$  17.19$
|427>   Q  0.6645  3.84$  12.51$  1.57$
|428>   Q  0.6645  3.02$  12.67$  0.44$
|429>   Q  -1.3290  3.55$  12.93$  0.96$
|430>   Q  0.6645  21$  8.59$  15.95$
|431>   Q  0.6645  20.48$  8.23$  14.59$
|432>   Q  -1.3290  20.44$  8.22$  15.42$
|433>   Q  0.6645  7.49$  17.44$  8.61$
|434>   Q  0.6645  8.89$  16.62$  8.51$
|435>   Q  -1.3290  8.03$  16.79$  8.37$
|436>   Q  0.6645  5.76$  9.71$  4.93$
|437>   Q  0.6645  4.79$  8.74$  4.09$
|438>   Q  -1.3290  5.32$  9.41$  4.25$
|439>   Q  0.6645  3.15$  9.04$  15.75$
|440>   Q  0.6645  4.44$  9.91$  15.36$
|441>   Q  -1.3290  3.67$  9.57$  15.28$
|442>   Q  0.6645  16.14$  15.15$  2.34$
|443>   Q  0.6645  15.71$  14.44$  0.89$
|444>   Q  -1.3290  16$  14.5$  1.73$
|445>   Q  0.6645  16.6$  7.02$  9.34$
|446>   Q  0.6645  16.99$  8.44$  9.62$
|447>   Q  -1.3290  17.05$  7.62$  9.73$
|448>   Q  0.6645  11.86$  18.99$  14.31$
|449>   Q  0.6645  11.01$  19.48$  13.08$
|450>   Q  -1.3290  11.72$  19.41$  13.55$
|451>   Q  0.6645  5.72$  15.12$  3.58$
|452>   Q  0.6645  5.19$  13.94$  4.52$
|453>   Q  -1.3290  5.77$  14.46$  4.17$
|454>   Q  0.6645  10.27$  15.06$  1.48$
|455>   Q  0.6645  9.07$  14.02$  1.96$
|456>   Q  -1.3290  9.46$  14.76$  1.69$
|457>   Q  0.6645  11.65$  -0.39$  13.29$
|458>   Q  0.6645  12.1$  1.01$  13.89$
|459>   Q  -1.3290  11.6$  0.41$  13.5$
|460>   Q  0.6645  8.86$  5.41$  1.03$
|461>   Q  0.6645  9.38$  6.84$  1.6$
|462>   Q  -1.3290  8.94$  6.07$  1.58$
|463>   Q  0.6645  0.27$  11.29$  7.97$
|464>   Q  0.6645  1.21$  11.22$  6.67$
|465>   Q  -1.3290  1.01$  11.3$  7.52$
|466>   Q  0.6645  18.86$  11.5$  11.35$
|467>   Q  0.6645  18.79$  10.15$  11.84$
|468>   Q  -1.3290  18.77$  10.68$  11.22$
|469>   Q  0.6645  10.66$  6.4$  19.1$
|470>   Q  0.6645  10.44$  5.52$  17.88$
|471>   Q  -1.3290  10.29$  6.17$  18.37$
|472>   Q  0.6645  7.15$  16.25$  10.27$
|473>   Q  0.6645  7.44$  15.65$  11.67$
|474>   Q  -1.3290  6.96$  15.89$  11.02$
|475>   Q  0.6645  12.37$  9.77$  19.9$
|476>   Q  0.6645  11.09$  9.33$  19.22$
|477>   Q  -1.3290  11.86$  9.22$  19.57$
|478>   Q  0.6645  13.5$  3.99$  17.68$
|479>   Q  0.6645  13.24$  3.25$  16.4$
|480>   Q  -1.3290  13.11$  3.44$  17.2$
|481>   Q  0.6645  10.76$  6.32$  11.28$
|482>   Q  0.6645  9.94$  6.44$  12.45$
|483>   Q  -1.3290  10.08$  6.55$  11.67$
|484>   Q  0.6645  15.18$  18.49$  7.99$
|485>   Q  0.6645  15.98$  17.86$  6.86$
|486>   Q  -1.3290  15.27$  18.17$  7.22$
|487>   Q  0.6645  18.92$  8.54$  6.91$
|488>   Q  0.6645  20.19$  8.76$  7.76$
|489>   Q  -1.3290  19.73$  8.47$  7.09$
|490>   Q  0.6645  18.76$  7.03$  10.35$
|491>   Q  0.6645  19.86$  6.04$  10.5$
|492>   Q  -1.3290  19.54$  6.82$  10.54$
|493>   Q  0.6645  16.17$  4.08$  18.07$
|494>   Q  0.6645  16.85$  5.44$  17.87$
|495>   Q  -1.3290  16.61$  4.68$  17.68$
|496>   Q  0.6645  9.8$  2.51$  5.99$
|497>   Q  0.6645  11.18$  3.11$  6.28$
|498>   Q  -1.3290  10.48$  2.69$  6.43$
|499>   Q  0.6645  13.4$  8.47$  18.85$
|500>   Q  0.6645  14.34$  7.18$  18.74$
|501>   Q  -1.3290  14.1$  8.02$  18.65$
|502>   Q  0.6645  16.39$  12.98$  20.81$
|503>   Q  0.6645  16.94$  14.17$  20.1$
|504>   Q  -1.3290  16.52$  13.78$  20.7$
|505>   Q  0.6645  1.64$  10.24$  0.83$
|506>   Q  0.6645  2.77$  9.57$  1.76$
|507>   Q  -1.3290  2.01$  9.94$  1.56$
|508>   Q  0.6645  6.6$  5$  4.02$
|509>   Q  0.6645  7.98$  5.29$  3.26$
|510>   Q  -1.3290  7.43$  5.05$  3.91$
|511>   Q  0.6645  1.04$  10.11$  11.68$
|512>   Q  0.6645  0.33$  11.54$  11.8$
|513>   Q  -1.3290  0.43$  10.69$  11.91$
|514>   Q  0.6645  12.99$  4.92$  6.01$
|515>   Q  0.6645  13.39$  3.61$  6.72$
|516>   Q  -1.3290  12.93$  4.33$  6.6$
|517>   Q  0.6645  15.95$  17.12$  13.31$
|518>   Q  0.6645  16.74$  16.87$  12.03$
|519>   Q  -1.3290  16.48$  16.69$  12.8$
|520>   Q  0.6645  4.82$  15.59$  7.28$
|521>   Q  0.6645  6.3$  15.45$  7.67$
|522>   Q  -1.3290  5.52$  15.19$  7.65$
|523>   Q  0.6645  16.38$  8.82$  6.16$
|524>   Q  0.6645  17.09$  9.16$  7.54$
|525>   Q  -1.3290  16.95$  8.75$  6.8$
|526>   Q  0.6645  15.04$  12.93$  2.75$
|527>   Q  0.6645  14.09$  12.5$  3.89$
|528>   Q  -1.3290  14.68$  12.36$  3.26$
|529>   Q  0.6645  8.62$  3.53$  15.83$
|530>   Q  0.6645  8.41$  3.27$  14.3$
|531>   Q  -1.3290  8.32$  3.67$  15.02$
|532>   Q  0.6645  16.64$  7.13$  14.89$
|533>   Q  0.6645  16.99$  8.68$  15.38$
|534>   Q  -1.3290  16.85$  7.82$  15.42$
|535>   Q  0.6645  13.46$  18.7$  18.42$
|536>   Q  0.6645  12.13$  19.24$  19.13$
|537>   Q  -1.3290  12.91$  19.27$  18.8$
|538>   Q  0.6645  18.1$  17.3$  6.07$
|539>   Q  0.6645  18.07$  18.18$  7.3$
|540>   Q  -1.3290  17.79$  17.56$  6.81$
|541>   Q  0.6645  3.15$  14.39$  4.82$
|542>   Q  0.6645  3.05$  13.99$  6.38$
|543>   Q  -1.3290  3.28$  13.91$  5.54$
|544>   Q  0.6645  18.85$  17.95$  10.42$
|545>   Q  0.6645  18.05$  16.94$  9.6$
|546>   Q  -1.3290  18.28$  17.34$  10.31$
|547>   Q  0.6645  0.37$  11.09$  14.07$
|548>   Q  0.6645  1.62$  11.56$  14.75$
|549>   Q  -1.3290  0.79$  11.44$  14.67$
|550>   Q  0.6645  9.08$  18.11$  20.8$
|551>   Q  0.6645  7.94$  18.72$  19.93$
|552>   Q  -1.3290  8.58$  18.16$  20.11$
|553>   Q  0.6645  16.48$  4.26$  13.65$
|554>   Q  0.6645  17.42$  5.08$  12.81$
|555>   Q  -1.3290  17.04$  4.36$  13.04$
|556>   Q  0.6645  10.18$  11.99$  19$
|557>   Q  0.6645  10.85$  12.95$  20.01$
|558>   Q  -1.3290  10.33$  12.33$  19.76$
|559>   Q  0.6645  15.79$  16.68$  4.12$
|560>   Q  0.6645  16.39$  15.39$  4.49$
|561>   Q  -1.3290  16.28$  16.05$  4.01$
|562>   Q  0.6645  4.02$  5.63$  9.83$
|563>   Q  0.6645  3.72$  4.41$  10.59$
|564>   Q  -1.3290  3.7$  4.88$  9.91$
|565>   Q  0.6645  11.03$  15.04$  20.87$
|566>   Q  0.6645  12.32$  14.98$  20$
|567>   Q  -1.3290  11.78$  14.76$  20.62$
|568>   Q  0.6645  7.3$  13.45$  16.72$
|569>   Q  0.6645  6.87$  12.25$  15.85$
|570>   Q  -1.3290  7.37$  12.86$  16.13$
|571>   Q  0.6645  0.14$  13.44$  13.01$
|572>   Q  0.6645  1.33$  13.13$  11.92$
|573>   Q  -1.3290  0.55$  13.34$  12.23$
|574>   Q  0.6645  3.99$  6.86$  7.69$
|575>   Q  0.6645  4.29$  7.39$  6.37$
|576>   Q  -1.3290  4.31$  6.81$  6.96$
|577>   Q  0.6645  15.56$  16.61$  21.82$
|578>   Q  0.6645  15.06$  15.59$  20.78$
|579>   Q  -1.3290  14.99$  16.15$  21.38$
|580>   Q  0.6645  3.71$  11.86$  14.46$
|581>   Q  0.6645  3.99$  13.24$  14.89$
|582>   Q  -1.3290  3.52$  12.56$  14.87$
|583>   Q  0.6645  16.13$  3.51$  11.25$
|584>   Q  0.6645  15.26$  2.61$  10.32$
|585>   Q  -1.3290  15.82$  3.19$  10.49$
|586>   Q  0.6645  4.81$  7.63$  11.17$
|587>   Q  0.6645  5.85$  6.77$  10.31$
|588>   Q  -1.3290  5.08$  7.1$  10.53$
|589>   Q  0.6645  10.67$  2.01$  8.28$
|590>   Q  0.6645  11.42$  2.16$  9.72$
|591>   Q  -1.3290  10.83$  1.91$  9.16$
|592>   Q  0.6645  4.31$  17.33$  10.94$
|593>   Q  0.6645  5.25$  18.38$  10.55$
|594>   Q  -1.3290  4.5$  18.12$  10.8$
|595>   Q  0.6645  9.24$  5.29$  20.41$
|596>   Q  0.6645  9.07$  3.75$  20.52$
|597>   Q  -1.3290  9.09$  4.55$  20.78$
|598>   Q  0.6645  17.52$  13.44$  18.14$
|599>   Q  0.6645  17.44$  14.95$  17.69$
|600>   Q  -1.3290  17.73$  14.27$  18.16$
|601>   Q  0.6645  8.25$  5.58$  6.96$
|602>   Q  0.6645  8.29$  6.14$  5.48$
|603>   Q  -1.3290  8.32$  6.18$  6.34$
|604>   Q  0.6645  8.42$  18.83$  15.34$
|605>   Q  0.6645  8.82$  18.62$  13.86$
|606>   Q  -1.3290  8.48$  18.39$  14.61$
|607>   Q  0.6645  2.24$  12.96$  8.27$
|608>   Q  0.6645  3.21$  13.9$  8.94$
|609>   Q  -1.3290  2.62$  13.72$  8.38$
|610>   Q  0.6645  12.58$  13.41$  -0.2$
|611>   Q  0.6645  12.39$  12.51$  1.15$
|612>   Q  -1.3290  12.76$  12.8$  0.43$
|613>   Q  0.6645  9.71$  18.42$  18.53$
|614>   Q  0.6645  9.72$  19.1$  17.2$
|615>   Q  -1.3290  10.03$  18.62$  17.79$
|616>   Q  0.6645  4.75$  15.29$  15.28$
|617>   Q  0.6645  5.69$  14.61$  14.15$
|618>   Q  -1.3290  4.93$  14.88$  14.51$
|619>   Q  0.6645  13.62$  5.47$  19.49$
|620>   Q  0.6645  14.92$  4.9$  19.38$
|621>   Q  -1.3290  14.31$  5.4$  19.12$
|622>   Q  0.6645  6.31$  6.8$  17.76$
|623>   Q  0.6645  5.78$  6.87$  16.43$
|624>   Q  -1.3290  5.72$  6.86$  17.24$
|625>   Q  0.6645  14.52$  10.85$  20.35$
|626>   Q  0.6645  13.39$  11.61$  21.01$
|627>   Q  -1.3290  13.73$  11.14$  20.44$
|628>   Q  0.6645  16.86$  11.11$  22.61$
|629>   Q  0.6645  17.33$  11.21$  21.16$
|630>   Q  -1.3290  16.77$  11.24$  21.77$
|631>   Q  0.6645  19.56$  12.21$  7.3$
|632>   Q  0.6645  20.64$  13.18$  7.77$
|633>   Q  -1.3290  20.36$  12.45$  7.49$
|634>   Q  0.6645  5.57$  16.47$  19.2$
|635>   Q  0.6645  5.17$  16.07$  17.88$
|636>   Q  -1.3290  5.57$  16.53$  18.4$
|637>   Q  0.6645  5.87$  3.96$  11.68$
|638>   Q  0.6645  4.9$  3.32$  12.76$
|639>   Q  -1.3290  5.24$  3.46$  11.98$
|640>   Q  0.6645  14.12$  2.15$  14.21$
|641>   Q  0.6645  13.42$  3.5$  14.33$
|642>   Q  -1.3290  13.46$  2.65$  14.38$
|643>   Q  0.6645  12.96$  5.86$  13.74$
|644>   Q  0.6645  11.71$  5.5$  14.59$
|645>   Q  -1.3290  12.52$  5.56$  14.42$
|646>   Q  0.6645  6.15$  13.14$  20.46$
|647>   Q  0.6645  5.16$  13.35$  21.61$
|648>   Q  -1.3290  5.46$  13.44$  20.82$
|649>   Q  0.6645  14.69$  18.51$  5.37$
|650>   Q  0.6645  13.57$  18.52$  4.43$
|651>   Q  -1.3290  14.37$  18.52$  4.61$
|652>   Q  0.6645  6.8$  11.72$  1.97$
|653>   Q  0.6645  6.68$  11.51$  0.5$
|654>   Q  -1.3290  6.43$  11.45$  1.27$
|655>   Q  0.6645  14.89$  6.17$  8.3$
|656>   Q  0.6645  14.59$  5.33$  9.64$
|657>   Q  -1.3290  14.69$  6.01$  9.12$
|658>   Q  0.6645  9.25$  15.32$  15.7$
|659>   Q  0.6645  8.65$  16.46$  14.94$
|660>   Q  -1.3290  8.89$  15.67$  15.03$
|661> *
|662> 
|663>                          ****END OF INPUT****
================================================================================

                     *******************************
                     * Energy+Gradient Calculation *
                     *******************************

---------------------------------
CARTESIAN COORDINATES (ANGSTROEM)
---------------------------------
  C     10.250000   10.670000    9.050000
  H      9.240000   10.520000    9.560000
  H     10.710000    9.780000    8.770000
  C     11.240000   11.230000   10.110000
  H     12.250000   10.960000    9.760000
  H     11.060000   12.300000   10.210000
  C     10.960000   10.550000   11.500000
  H     11.490000    9.570000   11.430000
  H      9.950000   10.330000   11.670000
  C     11.650000   11.210000   12.690000
  H     11.750000   12.310000   12.460000
  H     12.640000   10.840000   12.670000
  O     10.930000   10.810000   13.940000
  H     11.340000   11.230000   14.690000
  O     10.050000   11.630000    7.970000
  H      9.710000   11.100000    7.190000
  O     14.570000   11.630000   15.710000
  H     14.080000   10.820000   15.660000
  H     14.120000   12.380000   15.330000
  O     10.530000   13.450000    5.260000
  H      9.850000   14.150000    5.280000
  H      9.990000   12.760000    5.680000
  O     13.060000   14.180000   11.440000
  H     13.320000   14.720000   10.690000
  H     13.770000   13.940000   11.990000
  O      9.180000   11.040000    5.060000
  H      9.620000   10.230000    4.780000
  H      8.300000   10.850000    5.400000
  O     12.210000   13.850000   15.130000
  H     12.810000   14.470000   15.630000
  H     11.660000   13.480000   15.770000
  O     14.600000   11.700000   10.180000
  H     14.340000   10.770000   10.430000
  H     13.850000   12.240000   10.380000
  O     14.620000   15.750000   15.030000
  H     14.840000   15.110000   14.340000
  H     14.090000   16.510000   14.730000
  O      8.510000   15.070000    5.380000
  H      8.480000   14.930000    6.370000
  H      7.650000   14.710000    5.040000
  O     13.330000   12.860000   18.280000
  H     13.520000   12.190000   18.990000
  H     13.460000   12.350000   17.490000
  O     13.460000   12.770000    5.750000
  H     13.790000   11.900000    5.760000
  H     12.650000   12.820000    6.230000
  O     17.300000   12.190000   14.950000
  H     16.630000   12.110000   15.620000
  H     17.660000   13.050000   15.030000
  O     10.100000    8.260000    3.950000
  H      9.260000    8.630000    3.660000
  H     10.500000    8.120000    3.110000
  O      6.640000   10.770000   11.670000
  H      7.190000    9.980000   11.430000
  H      6.990000   11.500000   11.120000
  O     12.580000   15.460000   17.990000
  H     13.360000   16.040000   17.870000
  H     12.890000   14.540000   17.860000
  O     13.370000   16.200000    9.670000
  H     14.100000   15.870000    9.140000
  H     12.570000   16.220000    9.190000
  O     14.050000    8.770000   10.300000
  H     13.860000    8.220000   11.080000
  H     14.650000    8.090000    9.920000
  O     12.840000    9.070000    7.460000
  H     12.040000    8.580000    7.270000
  H     13.150000    8.900000    8.350000
  O      9.260000   14.050000    8.420000
  H      8.640000   14.040000    9.130000
  H      9.630000   13.170000    8.370000
  O     11.400000   15.770000   12.920000
  H     12.030000   15.080000   12.590000
  H     10.860000   15.300000   13.500000
  O     16.660000   11.880000   17.670000
  H     15.820000   11.510000   17.320000
  H     17.140000   11.130000   18.060000
  O      9.140000    8.770000   13.780000
  H      8.740000    8.960000   12.930000
  H      9.710000    9.540000   14.070000
  O      8.020000    8.550000   10.800000
  H      7.660000    8.540000    9.860000
  H      8.690000    7.800000   10.810000
  O     10.310000   12.810000   16.930000
  H     10.050000   13.650000   17.240000
  H      9.500000   12.580000   16.360000
  O     13.880000    8.980000   15.490000
  H     12.930000    8.820000   15.710000
  H     14.430000    8.630000   16.210000
  O     11.360000   11.910000    2.820000
  H     11.160000   12.560000    3.510000
  H     11.850000   11.240000    3.260000
  O      7.840000   12.770000    2.860000
  H      8.360000   12.420000    3.610000
  H      7.210000   13.460000    3.250000
  O     15.310000   13.660000   12.850000
  H     15.800000   14.420000   12.640000
  H     16.070000   13.120000   13.210000
  O      7.030000   10.240000    6.330000
  H      6.370000   10.820000    6.680000
  H      6.990000    9.520000    6.960000
  Q     17.200000   11.390000    7.300000
  Q     17.660000   12.520000    8.330000
  Q     17.710000   12.040000    7.610000
  Q     12.070000   19.110000    2.820000
  Q     10.670000   18.370000    3.140000
  Q     11.470000   18.690000    3.270000
  Q     15.260000    8.420000   20.790000
  Q     15.960000    9.290000   21.940000
  Q     15.650000    8.590000   21.540000
  Q     10.700000    8.930000   16.840000
  Q     10.960000    7.490000   16.600000
  Q     11.020000    8.320000   16.420000
  Q      1.450000    5.040000    5.960000
  Q      2.700000    5.820000    6.370000
  Q      1.920000    5.580000    6.440000
  Q     14.870000   19.500000   14.410000
  Q     14.410000   18.670000   13.290000
  Q     14.940000   18.870000   13.890000
  Q     16.340000   19.150000    9.810000
  Q     14.890000   19.060000   10.440000
  Q     15.540000   19.410000    9.970000
  Q     12.180000    3.420000    3.390000
  Q     11.610000    4.820000    3.730000
  Q     11.570000    4.010000    3.520000
  Q     15.200000    7.320000   12.790000
  Q     14.120000    7.920000   13.710000
  Q     14.400000    7.440000   13.080000
  Q     10.080000   20.860000    8.420000
  Q     10.650000   21.890000    9.350000
  Q     10.450000   21.130000    9.110000
  Q      5.250000   18.090000   13.210000
  Q      6.520000   18.450000   13.920000
  Q      5.730000   18.540000   13.680000
  Q     17.090000   12.960000    3.900000
  Q     17.860000   13.650000    2.790000
  Q     17.740000   13.090000    3.410000
  Q      5.610000   16.530000    1.800000
  Q      5.350000   17.110000    3.180000
  Q      5.330000   16.500000    2.560000
  Q     17.720000   13.400000   10.290000
  Q     16.290000   12.820000   10.100000
  Q     17.000000   13.270000    9.880000
  Q      8.320000   17.820000    4.510000
  Q      7.920000   17.390000    5.840000
  Q      8.020000   17.960000    5.250000
  Q      5.520000    9.430000   12.540000
  Q      4.390000    8.850000   13.460000
  Q      4.970000    8.850000   12.860000
  Q      3.970000    9.230000   21.280000
  Q      4.100000    9.940000   19.860000
  Q      3.690000    9.540000   20.530000
  Q      2.070000    8.720000   10.410000
  Q      2.770000    8.660000   11.790000
  Q      2.470000    9.020000   11.110000
  Q      4.810000   11.720000    8.080000
  Q      5.300000   13.120000    7.600000
  Q      5.340000   12.290000    7.780000
  Q      6.650000   14.000000   10.010000
  Q      6.680000   12.820000    9.080000
  Q      6.820000   13.220000    9.810000
  Q      3.840000   13.890000   11.640000
  Q      4.160000   12.560000   11.090000
  Q      3.710000   13.080000   11.500000
  Q     14.060000    7.920000    0.650000
  Q     13.970000    6.320000    0.940000
  Q     13.760000    7.180000    1.000000
  Q     11.860000   16.990000   14.780000
  Q     11.620000   17.700000   16.130000
  Q     12.050000   17.510000   15.430000
  Q     15.820000   10.610000    9.010000
  Q     17.400000   10.450000    9.310000
  Q     16.590000   10.250000    8.980000
  Q     17.950000   15.280000   13.520000
  Q     19.310000   14.670000   13.870000
  Q     18.470000   14.680000   13.720000
  Q      8.550000    8.720000   18.280000
  Q      8.350000   10.140000   17.640000
  Q      8.780000    9.540000   18.050000
  Q      6.200000    8.230000   14.250000
  Q      7.620000    8.210000   14.550000
  Q      6.840000    8.030000   14.710000
  Q     17.520000    3.090000    9.930000
  Q     19.130000    3.400000   10.330000
  Q     18.350000    3.350000    9.840000
  Q      4.960000    4.320000    5.130000
  Q      5.350000    3.460000    3.820000
  Q      5.020000    4.110000    4.290000
  Q      5.100000    9.890000    1.270000
  Q      5.100000    8.430000    1.340000
  Q      4.780000    9.150000    1.140000
  Q      7.820000   10.430000   20.310000
  Q      8.160000   11.950000   20.010000
  Q      7.660000   11.270000   20.230000
  Q     16.440000   14.890000    9.290000
  Q     16.020000   15.350000    7.880000
  Q     16.030000   15.370000    8.710000
  Q      6.950000    9.450000    2.860000
  Q      8.040000    9.740000    1.850000
  Q      7.700000    9.360000    2.520000
  Q     12.050000    4.730000    8.280000
  Q     12.220000    5.860000    9.440000
  Q     11.830000    5.330000    8.870000
  Q     14.320000    5.270000   15.180000
  Q     15.700000    4.860000   15.830000
  Q     15.150000    5.030000   15.200000
  Q     19.980000   13.660000   11.040000
  Q     19.170000   13.450000   12.350000
  Q     19.350000   13.330000   11.540000
  Q     14.450000    7.570000    2.890000
  Q     15.860000    7.600000    3.480000
  Q     15.030000    7.730000    3.490000
  Q      6.080000   18.510000    4.750000
  Q      4.820000   17.740000    5.230000
  Q      5.310000   18.180000    4.680000
  Q     12.410000   15.690000    2.280000
  Q     12.590000   15.950000    0.770000
  Q     12.190000   15.990000    1.500000
  Q      9.150000   16.460000    2.870000
  Q      8.300000   17.550000    2.190000
  Q      8.890000   17.250000    2.710000
  Q      0.700000    8.300000    8.550000
  Q      1.630000    7.140000    8.040000
  Q      1.370000    7.770000    8.550000
  Q      7.900000    3.340000    4.990000
  Q      7.930000    1.850000    4.630000
  Q      7.990000    2.510000    5.130000
  Q     18.340000    9.070000   18.710000
  Q     19.190000   10.130000   19.320000
  Q     18.500000    9.850000   18.960000
  Q     17.930000   10.540000   14.270000
  Q     18.960000    9.360000   14.390000
  Q     18.340000    9.830000   14.020000
  Q      6.890000    2.250000   10.080000
  Q      8.510000    2.170000    9.840000
  Q      7.730000    2.050000   10.210000
  Q      7.690000    7.490000   19.740000
  Q      8.600000    6.600000   18.750000
  Q      7.880000    6.970000   19.070000
  Q      4.260000   13.370000   19.410000
  Q      2.850000   13.020000   18.940000
  Q      3.700000   13.140000   18.870000
  Q     17.270000    8.080000   13.110000
  Q     17.320000    7.370000   11.760000
  Q     17.160000    7.430000   12.600000
  Q     11.460000    6.570000    7.390000
  Q     10.190000    6.980000    6.560000
  Q     11.020000    6.980000    6.800000
  Q     20.810000    9.910000    9.710000
  Q     20.480000    8.380000    9.750000
  Q     20.810000    9.110000    9.400000
  Q      9.650000    1.400000   12.960000
  Q      8.560000    1.960000   11.980000
  Q      8.930000    1.790000   12.730000
  Q      0.760000   10.080000    4.870000
  Q      1.970000   10.950000    4.410000
  Q      1.390000   10.690000    4.910000
  Q     15.970000   16.140000   16.050000
  Q     17.300000   16.910000   16.270000
  Q     16.670000   16.390000   16.470000
  Q     20.240000    7.910000   12.140000
  Q     21.150000    9.050000   12.540000
  Q     20.670000    8.410000   12.670000
  Q      3.810000    9.470000    7.920000
  Q      3.420000    9.920000    6.530000
  Q      3.880000    9.520000    7.100000
  Q     13.610000    6.930000    4.820000
  Q     11.970000    6.880000    5.160000
  Q     12.780000    6.670000    4.800000
  Q      9.480000   18.610000   11.720000
  Q      8.990000   20.060000   11.520000
  Q      9.320000   19.420000   11.950000
  Q      2.700000   10.820000    8.790000
  Q      3.280000   10.430000   10.020000
  Q      3.280000   10.870000    9.330000
  Q      3.420000   17.330000    6.890000
  Q      3.160000   16.340000    5.760000
  Q      3.650000   16.820000    6.260000
  Q      5.110000    3.530000    9.130000
  Q      4.770000    2.050000    9.050000
  Q      5.290000    2.730000    8.980000
  Q      6.180000   10.900000   18.940000
  Q      4.740000   11.420000   18.500000
  Q      5.340000   10.870000   18.740000
  Q     12.920000   14.200000    4.350000
  Q     13.850000   14.340000    2.970000
  Q     13.240000   14.530000    3.600000
  Q      7.290000    7.300000    7.670000
  Q      5.900000    7.880000    8.070000
  Q      6.760000    7.840000    8.030000
  Q     13.670000    1.490000   10.490000
  Q     12.700000    1.840000   11.700000
  Q     13.150000    1.960000   10.960000
  Q      6.190000    1.830000   15.570000
  Q      6.530000    3.310000   15.570000
  Q      6.020000    2.660000   15.690000
  Q      9.790000   11.010000   -0.260000
  Q     10.140000   11.140000    1.260000
  Q      9.880000   10.740000    0.540000
  Q      9.880000    3.260000   18.030000
  Q     11.180000    3.710000   17.240000
  Q     10.350000    3.730000   17.460000
  Q      6.710000    9.380000   15.980000
  Q      6.060000   10.370000   16.970000
  Q      6.460000   10.140000   16.260000
  Q      8.980000   19.270000    6.820000
  Q      9.940000   20.320000    6.140000
  Q      9.390000   20.010000    6.720000
  Q     12.220000   20.390000    8.380000
  Q     12.840000   20.960000    7.090000
  Q     12.830000   20.690000    7.880000
  Q     11.810000    7.570000    1.140000
  Q     10.950000    8.850000    0.890000
  Q     11.120000    8.050000    1.140000
  Q     11.940000    6.950000   20.980000
  Q     11.500000    5.460000   21.090000
  Q     11.750000    6.180000   20.660000
  Q      6.210000   19.320000    8.800000
  Q      7.210000   19.460000    9.900000
  Q      6.700000   19.020000    9.360000
  Q      9.360000    4.940000    8.950000
  Q      9.440000    3.970000    7.860000
  Q      9.030000    4.390000    8.440000
  Q     13.700000    5.670000   11.760000
  Q     13.140000    4.210000   11.610000
  Q     13.130000    5.070000   11.540000
  Q     14.020000    9.490000    6.270000
  Q     14.900000    9.460000    4.880000
  Q     14.650000    9.720000    5.710000
  Q      2.060000   15.350000    3.300000
  Q      3.490000   15.990000    3.380000
  Q      2.740000   15.710000    3.650000
  Q      4.100000   10.970000    3.820000
  Q      3.650000   12.390000    4.280000
  Q      3.670000   11.710000    3.770000
  Q      6.600000    8.390000   21.500000
  Q      8.200000    8.530000   21.580000
  Q      7.430000    8.520000   21.210000
  Q     10.650000   17.070000   10.300000
  Q     10.530000   16.640000   11.710000
  Q     10.270000   17.040000   11.040000
  Q      7.890000   14.110000   14.070000
  Q      7.380000   13.050000   13.050000
  Q      7.500000   13.830000   13.350000
  Q     15.220000    2.410000    6.640000
  Q     14.590000    1.900000    7.940000
  Q     14.580000    2.180000    7.160000
  Q     15.300000   13.780000    5.760000
  Q     16.730000   13.590000    6.230000
  Q     16.110000   13.980000    5.810000
  Q     17.740000   10.970000    2.800000
  Q     16.260000   10.690000    2.670000
  Q     17.080000   10.540000    2.490000
  Q     15.980000    5.210000    5.860000
  Q     16.530000    6.570000    6.530000
  Q     16.160000    5.800000    6.510000
  Q     19.540000   16.900000   12.430000
  Q     18.960000   17.390000   13.770000
  Q     19.540000   17.080000   13.240000
  Q      7.420000   15.480000   18.210000
  Q      8.400000   14.770000   19.090000
  Q      7.820000   14.800000   18.510000
  Q      4.020000   15.660000   12.780000
  Q      5.080000   15.750000   11.650000
  Q      4.330000   15.690000   11.970000
  Q     14.050000   17.720000   16.560000
  Q     15.320000   17.590000   17.500000
  Q     14.480000   17.580000   17.300000
  Q      9.900000    7.050000   14.500000
  Q      9.240000    5.480000   14.610000
  Q      9.760000    6.170000   14.330000
  Q      3.850000    6.620000    3.880000
  Q      2.480000    7.430000    3.730000
  Q      3.290000    7.270000    4.020000
  Q     13.180000   17.490000    6.560000
  Q     12.200000   17.160000    5.390000
  Q     12.430000   17.410000    6.170000
  Q      5.780000    6.240000    0.930000
  Q      6.870000    6.940000    1.810000
  Q      6.110000    6.860000    1.400000
  Q     18.790000    6.530000   18.190000
  Q     18.060000    7.390000   17.150000
  Q     18.260000    7.110000   17.920000
  Q     12.940000   18.660000   11.570000
  Q     13.630000   17.410000   10.990000
  Q     13.550000   18.120000   11.490000
  Q     10.570000   15.370000    8.600000
  Q     11.340000   16.510000    7.620000
  Q     11.010000   16.130000    8.360000
  Q      3.670000    7.060000   16.850000
  Q      2.310000    7.580000   17.310000
  Q      2.880000    7.360000   16.730000
  Q      9.020000   15.260000   21.850000
  Q      8.900000   16.320000   20.730000
  Q      9.150000   15.590000   21.090000
  Q      7.730000    4.630000   10.170000
  Q      7.910000    5.390000   11.380000
  Q      7.420000    5.040000   10.840000
  Q     11.170000   15.640000   17.320000
  Q      9.920000   16.500000   17.550000
  Q     10.360000   15.860000   17.190000
  Q      3.840000   12.510000    1.570000
  Q      3.020000   12.670000    0.440000
  Q      3.550000   12.930000    0.960000
  Q     21.000000    8.590000   15.950000
  Q     20.480000    8.230000   14.590000
  Q     20.440000    8.220000   15.420000
  Q      7.490000   17.440000    8.610000
  Q      8.890000   16.620000    8.510000
  Q      8.030000   16.790000    8.370000
  Q      5.760000    9.710000    4.930000
  Q      4.790000    8.740000    4.090000
  Q      5.320000    9.410000    4.250000
  Q      3.150000    9.040000   15.750000
  Q      4.440000    9.910000   15.360000
  Q      3.670000    9.570000   15.280000
  Q     16.140000   15.150000    2.340000
  Q     15.710000   14.440000    0.890000
  Q     16.000000   14.500000    1.730000
  Q     16.600000    7.020000    9.340000
  Q     16.990000    8.440000    9.620000
  Q     17.050000    7.620000    9.730000
  Q     11.860000   18.990000   14.310000
  Q     11.010000   19.480000   13.080000
  Q     11.720000   19.410000   13.550000
  Q      5.720000   15.120000    3.580000
  Q      5.190000   13.940000    4.520000
  Q      5.770000   14.460000    4.170000
  Q     10.270000   15.060000    1.480000
  Q      9.070000   14.020000    1.960000
  Q      9.460000   14.760000    1.690000
  Q     11.650000   -0.390000   13.290000
  Q     12.100000    1.010000   13.890000
  Q     11.600000    0.410000   13.500000
  Q      8.860000    5.410000    1.030000
  Q      9.380000    6.840000    1.600000
  Q      8.940000    6.070000    1.580000
  Q      0.270000   11.290000    7.970000
  Q      1.210000   11.220000    6.670000
  Q      1.010000   11.300000    7.520000
  Q     18.860000   11.500000   11.350000
  Q     18.790000   10.150000   11.840000
  Q     18.770000   10.680000   11.220000
  Q     10.660000    6.400000   19.100000
  Q     10.440000    5.520000   17.880000
  Q     10.290000    6.170000   18.370000
  Q      7.150000   16.250000   10.270000
  Q      7.440000   15.650000   11.670000
  Q      6.960000   15.890000   11.020000
  Q     12.370000    9.770000   19.900000
  Q     11.090000    9.330000   19.220000
  Q     11.860000    9.220000   19.570000
  Q     13.500000    3.990000   17.680000
  Q     13.240000    3.250000   16.400000
  Q     13.110000    3.440000   17.200000
  Q     10.760000    6.320000   11.280000
  Q      9.940000    6.440000   12.450000
  Q     10.080000    6.550000   11.670000
  Q     15.180000   18.490000    7.990000
  Q     15.980000   17.860000    6.860000
  Q     15.270000   18.170000    7.220000
  Q     18.920000    8.540000    6.910000
  Q     20.190000    8.760000    7.760000
  Q     19.730000    8.470000    7.090000
  Q     18.760000    7.030000   10.350000
  Q     19.860000    6.040000   10.500000
  Q     19.540000    6.820000   10.540000
  Q     16.170000    4.080000   18.070000
  Q     16.850000    5.440000   17.870000
  Q     16.610000    4.680000   17.680000
  Q      9.800000    2.510000    5.990000
  Q     11.180000    3.110000    6.280000
  Q     10.480000    2.690000    6.430000
  Q     13.400000    8.470000   18.850000
  Q     14.340000    7.180000   18.740000
  Q     14.100000    8.020000   18.650000
  Q     16.390000   12.980000   20.810000
  Q     16.940000   14.170000   20.100000
  Q     16.520000   13.780000   20.700000
  Q      1.640000   10.240000    0.830000
  Q      2.770000    9.570000    1.760000
  Q      2.010000    9.940000    1.560000
  Q      6.600000    5.000000    4.020000
  Q      7.980000    5.290000    3.260000
  Q      7.430000    5.050000    3.910000
  Q      1.040000   10.110000   11.680000
  Q      0.330000   11.540000   11.800000
  Q      0.430000   10.690000   11.910000
  Q     12.990000    4.920000    6.010000
  Q     13.390000    3.610000    6.720000
  Q     12.930000    4.330000    6.600000
  Q     15.950000   17.120000   13.310000
  Q     16.740000   16.870000   12.030000
  Q     16.480000   16.690000   12.800000
  Q      4.820000   15.590000    7.280000
  Q      6.300000   15.450000    7.670000
  Q      5.520000   15.190000    7.650000
  Q     16.380000    8.820000    6.160000
  Q     17.090000    9.160000    7.540000
  Q     16.950000    8.750000    6.800000
  Q     15.040000   12.930000    2.750000
  Q     14.090000   12.500000    3.890000
  Q     14.680000   12.360000    3.260000
  Q      8.620000    3.530000   15.830000
  Q      8.410000    3.270000   14.300000
  Q      8.320000    3.670000   15.020000
  Q     16.640000    7.130000   14.890000
  Q     16.990000    8.680000   15.380000
  Q     16.850000    7.820000   15.420000
  Q     13.460000   18.700000   18.420000
  Q     12.130000   19.240000   19.130000
  Q     12.910000   19.270000   18.800000
  Q     18.100000   17.300000    6.070000
  Q     18.070000   18.180000    7.300000
  Q     17.790000   17.560000    6.810000
  Q      3.150000   14.390000    4.820000
  Q      3.050000   13.990000    6.380000
  Q      3.280000   13.910000    5.540000
  Q     18.850000   17.950000   10.420000
  Q     18.050000   16.940000    9.600000
  Q     18.280000   17.340000   10.310000
  Q      0.370000   11.090000   14.070000
  Q      1.620000   11.560000   14.750000
  Q      0.790000   11.440000   14.670000
  Q      9.080000   18.110000   20.800000
  Q      7.940000   18.720000   19.930000
  Q      8.580000   18.160000   20.110000
  Q     16.480000    4.260000   13.650000
  Q     17.420000    5.080000   12.810000
  Q     17.040000    4.360000   13.040000
  Q     10.180000   11.990000   19.000000
  Q     10.850000   12.950000   20.010000
  Q     10.330000   12.330000   19.760000
  Q     15.790000   16.680000    4.120000
  Q     16.390000   15.390000    4.490000
  Q     16.280000   16.050000    4.010000
  Q      4.020000    5.630000    9.830000
  Q      3.720000    4.410000   10.590000
  Q      3.700000    4.880000    9.910000
  Q     11.030000   15.040000   20.870000
  Q     12.320000   14.980000   20.000000
  Q     11.780000   14.760000   20.620000
  Q      7.300000   13.450000   16.720000
  Q      6.870000   12.250000   15.850000
  Q      7.370000   12.860000   16.130000
  Q      0.140000   13.440000   13.010000
  Q      1.330000   13.130000   11.920000
  Q      0.550000   13.340000   12.230000
  Q      3.990000    6.860000    7.690000
  Q      4.290000    7.390000    6.370000
  Q      4.310000    6.810000    6.960000
  Q     15.560000   16.610000   21.820000
  Q     15.060000   15.590000   20.780000
  Q     14.990000   16.150000   21.380000
  Q      3.710000   11.860000   14.460000
  Q      3.990000   13.240000   14.890000
  Q      3.520000   12.560000   14.870000
  Q     16.130000    3.510000   11.250000
  Q     15.260000    2.610000   10.320000
  Q     15.820000    3.190000   10.490000
  Q      4.810000    7.630000   11.170000
  Q      5.850000    6.770000   10.310000
  Q      5.080000    7.100000   10.530000
  Q     10.670000    2.010000    8.280000
  Q     11.420000    2.160000    9.720000
  Q     10.830000    1.910000    9.160000
  Q      4.310000   17.330000   10.940000
  Q      5.250000   18.380000   10.550000
  Q      4.500000   18.120000   10.800000
  Q      9.240000    5.290000   20.410000
  Q      9.070000    3.750000   20.520000
  Q      9.090000    4.550000   20.780000
  Q     17.520000   13.440000   18.140000
  Q     17.440000   14.950000   17.690000
  Q     17.730000   14.270000   18.160000
  Q      8.250000    5.580000    6.960000
  Q      8.290000    6.140000    5.480000
  Q      8.320000    6.180000    6.340000
  Q      8.420000   18.830000   15.340000
  Q      8.820000   18.620000   13.860000
  Q      8.480000   18.390000   14.610000
  Q      2.240000   12.960000    8.270000
  Q      3.210000   13.900000    8.940000
  Q      2.620000   13.720000    8.380000
  Q     12.580000   13.410000   -0.200000
  Q     12.390000   12.510000    1.150000
  Q     12.760000   12.800000    0.430000
  Q      9.710000   18.420000   18.530000
  Q      9.720000   19.100000   17.200000
  Q     10.030000   18.620000   17.790000
  Q      4.750000   15.290000   15.280000
  Q      5.690000   14.610000   14.150000
  Q      4.930000   14.880000   14.510000
  Q     13.620000    5.470000   19.490000
  Q     14.920000    4.900000   19.380000
  Q     14.310000    5.400000   19.120000
  Q      6.310000    6.800000   17.760000
  Q      5.780000    6.870000   16.430000
  Q      5.720000    6.860000   17.240000
  Q     14.520000   10.850000   20.350000
  Q     13.390000   11.610000   21.010000
  Q     13.730000   11.140000   20.440000
  Q     16.860000   11.110000   22.610000
  Q     17.330000   11.210000   21.160000
  Q     16.770000   11.240000   21.770000
  Q     19.560000   12.210000    7.300000
  Q     20.640000   13.180000    7.770000
  Q     20.360000   12.450000    7.490000
  Q      5.570000   16.470000   19.200000
  Q      5.170000   16.070000   17.880000
  Q      5.570000   16.530000   18.400000
  Q      5.870000    3.960000   11.680000
  Q      4.900000    3.320000   12.760000
  Q      5.240000    3.460000   11.980000
  Q     14.120000    2.150000   14.210000
  Q     13.420000    3.500000   14.330000
  Q     13.460000    2.650000   14.380000
  Q     12.960000    5.860000   13.740000
  Q     11.710000    5.500000   14.590000
  Q     12.520000    5.560000   14.420000
  Q      6.150000   13.140000   20.460000
  Q      5.160000   13.350000   21.610000
  Q      5.460000   13.440000   20.820000
  Q     14.690000   18.510000    5.370000
  Q     13.570000   18.520000    4.430000
  Q     14.370000   18.520000    4.610000
  Q      6.800000   11.720000    1.970000
  Q      6.680000   11.510000    0.500000
  Q      6.430000   11.450000    1.270000
  Q     14.890000    6.170000    8.300000
  Q     14.590000    5.330000    9.640000
  Q     14.690000    6.010000    9.120000
  Q      9.250000   15.320000   15.700000
  Q      8.650000   16.460000   14.940000
  Q      8.890000   15.670000   15.030000

----------------------------
CARTESIAN COORDINATES (A.U.)
----------------------------
  NO LB      ZA    FRAG     MASS         X           Y           Z
   0 C     6.0000    0    12.011   19.369693   20.163378   17.102022
   1 H     1.0000    0     1.008   17.461069   19.879919   18.065782
   2 H     1.0000    0     1.008   20.238967   18.481522   16.572898
   3 C     6.0000    0    12.011   21.240522   21.221624   19.105131
   4 H     1.0000    0     1.008   23.149145   20.711398   18.443727
   5 H     1.0000    0     1.008   20.900371   23.243631   19.294104
   6 C     6.0000    0    12.011   20.711398   19.936611   21.731851
   7 H     1.0000    0     1.008   21.712953   18.084679   21.599570
   8 H     1.0000    0     1.008   18.802775   19.520871   22.053104
   9 C     6.0000    0    12.011   22.015309   21.183830   23.980625
  10 H     1.0000    0     1.008   22.204282   23.262529   23.545988
  11 H     1.0000    0     1.008   23.886138   20.484631   23.942830
  12 O     8.0000    0    15.999   20.654707   20.427940   26.342782
  13 H     1.0000    0     1.008   21.429494   21.221624   27.760077
  14 O     8.0000    0    15.999   18.991748   21.977515   15.061117
  15 H     1.0000    0     1.008   18.349241   20.975960   13.587131
  16 O     8.0000    0    15.999   27.533310   21.977515   29.687598
  17 H     1.0000    0     1.008   26.607344   20.446837   29.593111
  18 H     1.0000    0     1.008   26.682933   23.394810   28.969502
  19 O     8.0000    0    15.999   19.898816   25.416817    9.939959
  20 H     1.0000    0     1.008   18.613802   26.739625    9.977754
  21 H     1.0000    0     1.008   18.878364   24.112905   10.733644
  22 O     8.0000    0    15.999   24.679823   26.796317   21.618467
  23 H     1.0000    0     1.008   25.171152   27.816769   20.201172
  24 H     1.0000    0     1.008   26.021529   26.342782   22.657816
  25 O     8.0000    0    15.999   17.347686   20.862577    9.562014
  26 H     1.0000    0     1.008   18.179165   19.331898    9.032891
  27 H     1.0000    0     1.008   15.684727   20.503529   10.204521
  28 O     8.0000    0    15.999   23.073556   26.172707   28.591556
  29 H     1.0000    0     1.008   24.207392   27.344337   29.536419
  30 H     1.0000    0     1.008   22.034207   25.473508   29.800981
  31 O     8.0000    0    15.999   27.590002   22.109796   19.237412
  32 H     1.0000    0     1.008   27.098673   20.352350   19.709844
  33 H     1.0000    0     1.008   26.172707   23.130248   19.615357
  34 O     8.0000    0    15.999   27.627796   29.763187   28.402584
  35 H     1.0000    0     1.008   28.043536   28.553762   27.098673
  36 H     1.0000    0     1.008   26.626241   31.199378   27.835666
  37 O     8.0000    0    15.999   16.081569   28.478173   10.166727
  38 H     1.0000    0     1.008   16.024878   28.213611   12.037555
  39 H     1.0000    0     1.008   14.456405   27.797871    9.524220
  40 O     8.0000    0    15.999   25.190049   24.301878   34.544194
  41 H     1.0000    0     1.008   25.549097   23.035762   35.885899
  42 H     1.0000    0     1.008   25.435714   23.338118   33.051310
  43 O     8.0000    0    15.999   25.435714   24.131803   10.865925
  44 H     1.0000    0     1.008   26.059323   22.487741   10.884823
  45 H     1.0000    0     1.008   23.905036   24.226289   11.772994
  46 O     8.0000    0    15.999   32.692262   23.035762   28.251406
  47 H     1.0000    0     1.008   31.426146   22.884583   29.517522
  48 H     1.0000    0     1.008   33.372564   24.660926   28.402584
  49 O     8.0000    0    15.999   19.086234   15.609138    7.464418
  50 H     1.0000    0     1.008   17.498864   16.308337    6.916398
  51 H     1.0000    0     1.008   19.842124   15.344576    5.877048
  52 O     8.0000    0    15.999   12.547782   20.352350   22.053104
  53 H     1.0000    0     1.008   13.587131   18.859467   21.599570
  54 H     1.0000    0     1.008   13.209186   21.731851   21.013755
  55 O     8.0000    0    15.999   23.772755   29.215166   33.996173
  56 H     1.0000    0     1.008   25.246741   30.311207   33.769406
  57 H     1.0000    0     1.008   24.358570   27.476618   33.750509
  58 O     8.0000    0    15.999   25.265638   30.613563   18.273652
  59 H     1.0000    0     1.008   26.645138   29.989954   17.272097
  60 H     1.0000    0     1.008   23.753858   30.651358   17.366583
  61 O     8.0000    0    15.999   26.550652   16.572898   19.464179
  62 H     1.0000    0     1.008   26.191604   15.533549   20.938166
  63 H     1.0000    0     1.008   27.684488   15.287884   18.746083
  64 O     8.0000    0    15.999   24.264084   17.139816   14.097357
  65 H     1.0000    0     1.008   22.752303   16.213850   13.738309
  66 H     1.0000    0     1.008   24.849899   16.818563   15.779213
  67 O     8.0000    0    15.999   17.498864   26.550652   15.911494
  68 H     1.0000    0     1.008   16.327234   26.531755   17.253200
  69 H     1.0000    0     1.008   18.198063   24.887693   15.817008
  70 O     8.0000    0    15.999   21.542878   29.800981   24.415262
  71 H     1.0000    0     1.008   22.733405   28.497070   23.791652
  72 H     1.0000    0     1.008   20.522426   28.912810   25.511303
  73 O     8.0000    0    15.999   31.482837   22.449946   33.391461
  74 H     1.0000    0     1.008   29.895467   21.750748   32.730057
  75 H     1.0000    0     1.008   32.389906   21.032652   34.128454
  76 O     8.0000    0    15.999   17.272097   16.572898   26.040426
  77 H     1.0000    0     1.008   16.516206   16.931946   24.434159
  78 H     1.0000    0     1.008   18.349241   18.027987   26.588447
  79 O     8.0000    0    15.999   15.155604   16.157158   20.409042
  80 H     1.0000    0     1.008   14.475302   16.138261   18.632700
  81 H     1.0000    0     1.008   16.421720   14.739864   20.427940
  82 O     8.0000    0    15.999   19.483076   24.207392   31.993063
  83 H     1.0000    0     1.008   18.991748   25.794762   32.578879
  84 H     1.0000    0     1.008   17.952398   23.772755   30.915920
  85 O     8.0000    0    15.999   26.229399   16.969741   29.271858
  86 H     1.0000    0     1.008   24.434159   16.667385   29.687598
  87 H     1.0000    0     1.008   27.268748   16.308337   30.632461
  88 O     8.0000    0    15.999   21.467289   22.506638    5.329028
  89 H     1.0000    0     1.008   21.089344   23.734960    6.632939
  90 H     1.0000    0     1.008   22.393255   21.240522    6.160507
  91 O     8.0000    0    15.999   14.815453   24.131803    5.404617
  92 H     1.0000    0     1.008   15.798110   23.470399    6.821911
  93 H     1.0000    0     1.008   13.624925   25.435714    6.141610
  94 O     8.0000    0    15.999   28.931707   25.813659   24.282981
  95 H     1.0000    0     1.008   29.857673   27.249851   23.886138
  96 H     1.0000    0     1.008   30.367899   24.793207   24.963282
  97 O     8.0000    0    15.999   13.284775   19.350796   11.961966
  98 H     1.0000    0     1.008   12.037555   20.446837   12.623371
  99 H     1.0000    0     1.008   13.209186   17.990193   13.152494
 100 Q     0.6645    0     0.000   32.503290   21.523981   13.795001
 101 Q     0.6645    0     0.000   33.372564   23.659371   15.741419
 102 Q    -1.3290    0     0.000   33.467050   22.752303   14.380816
 103 Q     0.6645    0     0.000   22.808994   36.112666    5.329028
 104 Q     0.6645    0     0.000   20.163378   34.714269    5.933740
 105 Q    -1.3290    0     0.000   21.675159   35.318981    6.179404
 106 Q     0.6645    0     0.000   28.837221   15.911494   39.287406
 107 Q     0.6645    0     0.000   30.160029   17.555556   41.460591
 108 Q    -1.3290    0     0.000   29.574214   16.232747   40.704701
 109 Q     0.6645    0     0.000   20.220070   16.875254   31.822988
 110 Q     0.6645    0     0.000   20.711398   14.154049   31.369454
 111 Q    -1.3290    0     0.000   20.824782   15.722521   31.029303
 112 Q     0.6645    0     0.000    2.740103    9.524220   11.262768
 113 Q     0.6645    0     0.000    5.102261   10.998206   12.037555
 114 Q    -1.3290    0     0.000    3.628274   10.544672   12.169836
 115 Q     0.6645    0     0.000   28.100228   36.849660   27.230954
 116 Q     0.6645    0     0.000   27.230954   35.281187   25.114460
 117 Q    -1.3290    0     0.000   28.232508   35.659132   26.248296
 118 Q     0.6645    0     0.000   30.878125   36.188255   18.538213
 119 Q     0.6645    0     0.000   28.138022   36.018180   19.728741
 120 Q    -1.3290    0     0.000   29.366344   36.679584   18.840570
 121 Q     0.6645    0     0.000   23.016864    6.462863    6.406172
 122 Q     0.6645    0     0.000   21.939720    9.108480    7.048678
 123 Q    -1.3290    0     0.000   21.864131    7.577802    6.651836
 124 Q     0.6645    0     0.000   28.723837   13.832795   24.169597
 125 Q     0.6645    0     0.000   26.682933   14.966631   25.908145
 126 Q    -1.3290    0     0.000   27.212056   14.059562   24.717618
 127 Q     0.6645    0     0.000   19.048439   39.419687   15.911494
 128 Q     0.6645    0     0.000   20.125583   41.366105   17.668939
 129 Q    -1.3290    0     0.000   19.747638   39.929913   17.215405
 130 Q     0.6645    0     0.000    9.921062   34.185146   24.963282
 131 Q     0.6645    0     0.000   12.321014   34.865447   26.304988
 132 Q    -1.3290    0     0.000   10.828131   35.035523   25.851454
 133 Q     0.6645    0     0.000   32.295420   24.490851    7.369932
 134 Q     0.6645    0     0.000   33.750509   25.794762    5.272336
 135 Q    -1.3290    0     0.000   33.523742   24.736515    6.443966
 136 Q     0.6645    0     0.000   10.601364   31.237173    3.401507
 137 Q     0.6645    0     0.000   10.110035   32.333214    6.009329
 138 Q    -1.3290    0     0.000   10.072240   31.180481    4.837699
 139 Q     0.6645    0     0.000   33.485947   25.322330   19.445282
 140 Q     0.6645    0     0.000   30.783639   24.226289   19.086234
 141 Q    -1.3290    0     0.000   32.125344   25.076666   18.670494
 142 Q     0.6645    0     0.000   15.722521   33.674920    8.522665
 143 Q     0.6645    0     0.000   14.966631   32.862337   11.036001
 144 Q    -1.3290    0     0.000   15.155604   33.939481    9.921062
 145 Q     0.6645    0     0.000   10.431288   17.820117   23.697166
 146 Q     0.6645    0     0.000    8.295898   16.724076   25.435714
 147 Q    -1.3290    0     0.000    9.391939   16.724076   24.301878
 148 Q     0.6645    0     0.000    7.502213   17.442172   40.213372
 149 Q     0.6645    0     0.000    7.747877   18.783878   37.529961
 150 Q    -1.3290    0     0.000    6.973089   18.027987   38.796078
 151 Q     0.6645    0     0.000    3.911733   16.478412   19.672049
 152 Q     0.6645    0     0.000    5.234541   16.365028   22.279871
 153 Q    -1.3290    0     0.000    4.667624   17.045330   20.994857
 154 Q     0.6645    0     0.000    9.089583   22.147590   15.268987
 155 Q     0.6645    0     0.000   10.015549   24.793207   14.361919
 156 Q    -1.3290    0     0.000   10.091138   23.224734   14.702069
 157 Q     0.6645    0     0.000   12.566679   26.456166   18.916159
 158 Q     0.6645    0     0.000   12.623371   24.226289   17.158713
 159 Q    -1.3290    0     0.000   12.887932   24.982179   18.538213
 160 Q     0.6645    0     0.000    7.256548   26.248296   21.996412
 161 Q     0.6645    0     0.000    7.861261   23.734960   20.957063
 162 Q    -1.3290    0     0.000    7.010884   24.717618   21.731851
 163 Q     0.6645    0     0.000   26.569549   14.966631    1.228322
 164 Q     0.6645    0     0.000   26.399474   11.943069    1.776343
 165 Q    -1.3290    0     0.000   26.002632   13.568234    1.889726
 166 Q     0.6645    0     0.000   22.412152   32.106447   27.930152
 167 Q     0.6645    0     0.000   21.958618   33.448153   30.481283
 168 Q    -1.3290    0     0.000   22.771200   33.089105   29.158474
 169 Q     0.6645    0     0.000   29.895467   20.049994   17.026432
 170 Q     0.6645    0     0.000   32.881235   19.747638   17.593350
 171 Q    -1.3290    0     0.000   31.350557   19.369693   16.969741
 172 Q     0.6645    0     0.000   33.920584   28.875015   25.549097
 173 Q     0.6645    0     0.000   36.490612   27.722282   26.210501
 174 Q    -1.3290    0     0.000   34.903242   27.741180   25.927043
 175 Q     0.6645    0     0.000   16.157158   16.478412   34.544194
 176 Q     0.6645    0     0.000   15.779213   19.161823   33.334769
 177 Q    -1.3290    0     0.000   16.591795   18.027987   34.109557
 178 Q     0.6645    0     0.000   11.716302   15.552446   26.928597
 179 Q     0.6645    0     0.000   14.399713   15.514652   27.495515
 180 Q    -1.3290    0     0.000   12.925727   15.174501   27.797871
 181 Q     0.6645    0     0.000   33.108002    5.839254   18.764981
 182 Q     0.6645    0     0.000   36.150461    6.425069   19.520871
 183 Q    -1.3290    0     0.000   34.676475    6.330583   18.594905
 184 Q     0.6645    0     0.000    9.373042    8.163617    9.694295
 185 Q     0.6645    0     0.000   10.110035    6.538452    7.218754
 186 Q    -1.3290    0     0.000    9.486425    7.766774    8.106925
 187 Q     0.6645    0     0.000    9.637603   18.689391    2.399952
 188 Q     0.6645    0     0.000    9.637603   15.930391    2.532233
 189 Q    -1.3290    0     0.000    9.032891   17.290994    2.154288
 190 Q     0.6645    0     0.000   14.777658   19.709844   38.380338
 191 Q     0.6645    0     0.000   15.420165   22.582227   37.813420
 192 Q    -1.3290    0     0.000   14.475302   21.297214   38.229160
 193 Q     0.6645    0     0.000   31.067098   28.138022   17.555556
 194 Q     0.6645    0     0.000   30.273413   29.007296   14.891042
 195 Q    -1.3290    0     0.000   30.292310   29.045091   16.459515
 196 Q     0.6645    0     0.000   13.133597   17.857912    5.404617
 197 Q     0.6645    0     0.000   15.193398   18.405933    3.495993
 198 Q    -1.3290    0     0.000   14.550891   17.687837    4.762110
 199 Q     0.6645    0     0.000   22.771200    8.938405   15.646932
 200 Q     0.6645    0     0.000   23.092453   11.073795   17.839015
 201 Q    -1.3290    0     0.000   22.355460   10.072240   16.761871
 202 Q     0.6645    0     0.000   27.060878    9.958857   28.686043
 203 Q     0.6645    0     0.000   29.668700    9.184069   29.914365
[...]
 344   Q   :    0.219147725    0.077113785   -0.162699338
 345   Q   :    0.021151421   -0.102241204    0.295542831
 346   Q   :   -0.235441079    0.012882318   -0.126121066
 347   Q   :   -0.273951990   -0.077930181   -0.009504907
 348   Q   :    0.196209193   -0.136587269    0.146095234
 349   Q   :    0.077864375    0.211888386   -0.131690423
 350   Q   :    0.213972791    0.146437204    0.116044005
 351   Q   :   -0.268470793    0.054202451    0.072692001
 352   Q   :    0.059252179   -0.209474348   -0.190259010
 353   Q   :   -0.051404401   -0.166532463   -0.201956787
 354   Q   :    0.115868504    0.250006464   -0.010018828
 355   Q   :   -0.063062990   -0.094311953    0.204632682
 356   Q   :   -0.011324562   -0.063954513   -0.301337433
 357   Q   :   -0.212055818    0.106421193    0.175287572
 358   Q   :    0.227960723   -0.038692757    0.129206945
 359   Q   :   -0.120975986    0.238815291   -0.094391588
 360   Q   :    0.214490543    0.006830174    0.215101431
 361   Q   :   -0.088448819   -0.245679913   -0.120744498
 362   Q   :   -0.088371278   -0.001777347    0.243902755
 363   Q   :    0.272756421    0.028204008   -0.110213808
 364   Q   :   -0.203168875   -0.016614985   -0.129623341
 365   Q   :   -0.120110785    0.045797099   -0.233935929
 366   Q   :    0.263516509    0.015578987    0.055691122
 367   Q   :   -0.126595392   -0.054744453    0.173503596
 368   Q   :    0.042650643    0.225756350    0.056116941
 369   Q   :   -0.131768124   -0.175236614    0.080683857
 370   Q   :    0.087269083   -0.048526932   -0.123612559
 371   Q   :    0.168430584   -0.206992513   -0.050966223
 372   Q   :   -0.252526056    0.036700866   -0.097843095
 373   Q   :    0.072989426    0.166904431    0.147323861
 374   Q   :    0.252318559    0.013607112    0.118135229
 375   Q   :   -0.061277072   -0.091047486   -0.262840080
 376   Q   :   -0.190012559    0.080984639    0.136138986
 377   Q   :   -0.104995819   -0.228963197   -0.162828710
 378   Q   :    0.232490370    0.008246135    0.124842834
 379   Q   :   -0.123346557    0.208555841    0.037473897
 380   Q   :    0.196688481   -0.218162727    0.089623292
 381   Q   :   -0.052724948    0.085277544   -0.252873977
 382   Q   :   -0.138455963    0.129029891    0.168599255
 383   Q   :   -0.232515586    0.198554126    0.014119516
 384   Q   :    0.020216938   -0.200320592   -0.146038570
 385   Q   :    0.203896649    0.000949940    0.134939856
 386   Q   :   -0.103652074   -0.186201972    0.062011145
 387   Q   :    0.088947067    0.091757594   -0.197443979
 388   Q   :    0.008337196    0.092966546    0.131562974
 389   Q   :    0.247200568   -0.093473361    0.049930081
 390   Q   :   -0.190624464    0.077612182    0.215801685
 391   Q   :   -0.066421629    0.004903406   -0.266504748
 392   Q   :   -0.052895092   -0.100957682    0.274415023
 393   Q   :   -0.084418655    0.245611186   -0.098323345
 394   Q   :    0.134340733   -0.146099684   -0.164689566
 395   Q   :    0.124935886   -0.122626511   -0.212333198
 396   Q   :    0.208520928    0.132189753    0.199277631
 397   Q   :   -0.327229212   -0.005215960    0.015524608
 398   Q   :    0.242830063   -0.066027313    0.040428946
 399   Q   :   -0.143100426    0.209008911    0.126696096
 400   Q   :   -0.107390125   -0.140242548   -0.163743872
 401   Q   :    0.103998687   -0.186709351    0.236568929
 402   Q   :   -0.236616667   -0.134124907   -0.220948818
 403   Q   :    0.132954627    0.320581793   -0.020606237
 404   Q   :    0.198057400    0.135014214    0.163088974
 405   Q   :    0.023010098    0.025852647   -0.279217533
 406   Q   :   -0.221025012   -0.162075707    0.134670266
 407   Q   :   -0.151062836    0.183690172    0.073523220
 408   Q   :    0.243421415   -0.039907675    0.048370825
 409   Q   :   -0.084456697   -0.152243393   -0.126355132
 410   Q   :    0.127793404    0.089407500    0.213873544
 411   Q   :   -0.156376809   -0.205239766   -0.039048714
 412   Q   :    0.031583213    0.111920815   -0.173752105
 413   Q   :   -0.143064539   -0.145393420    0.142201074
 414   Q   :    0.267902197    0.112864660    0.027127265
 415   Q   :   -0.136482571    0.043790829   -0.164398389
 416   Q   :    0.028772805    0.173213854    0.145796746
 417   Q   :   -0.092959636   -0.004456038   -0.249480638
 418   Q   :    0.067618213   -0.170947189    0.081500086
 419   Q   :   -0.156422216   -0.184769217   -0.133523882
 420   Q   :   -0.029055561    0.278982927   -0.041702295
 421   Q   :    0.180376426   -0.093509247    0.160522879
 422   Q   :    0.022601714   -0.119861860    0.222744900
 423   Q   :   -0.237628186    0.011272502   -0.138301989
 424   Q   :    0.216031264    0.117904376   -0.082271225
 425   Q   :   -0.013978517    0.170391030   -0.156316627
 426   Q   :   -0.195124122   -0.171276894    0.102899262
 427   Q   :    0.196872616   -0.008997446    0.063152229
 428   Q   :    0.234690259    0.071828160   -0.059340609
 429   Q   :   -0.100888407   -0.223023125    0.079251230
 430   Q   :   -0.133276898    0.143783419   -0.030290589
 431   Q   :    0.036975917   -0.299810380   -0.075228205
 432   Q   :    0.166248790    0.168808157    0.112387626
 433   Q   :   -0.202538815    0.118667247   -0.038025949
 434   Q   :   -0.025599141   -0.215100396   -0.187994394
 435   Q   :    0.121107547    0.216104246   -0.000393942
 436   Q   :   -0.090710299   -0.001990486    0.183037033
 437   Q   :   -0.244902576   -0.009686331    0.136345037
 438   Q   :    0.047448031   -0.025280243   -0.234140566
 439   Q   :    0.184252059    0.034942159    0.106312446
 440   Q   :    0.029231922    0.270757874    0.065279131
 441   Q   :    0.014332515   -0.184941177    0.239994206
 442   Q   :   -0.043882656   -0.095455012   -0.306556535
 443   Q   :    0.108831113    0.064932563    0.232694650
 444   Q   :    0.069818019   -0.219427329   -0.162348460
 445   Q   :   -0.170291900    0.163135915   -0.081788311
 446   Q   :    0.070853062    0.116815998   -0.243571438
 447   Q   :    0.173706822   -0.072513840    0.209348273
 448   Q   :   -0.234970163   -0.035622060    0.035817329
 449   Q   :    0.178131866    0.201625504    0.114730615
 450   Q   :   -0.249841767    0.047121664   -0.113212602
 451   Q   :    0.056199993   -0.253267944   -0.001969851
 452   Q   :    0.151377673    0.200418630    0.162872868
 453   Q   :    0.058542432   -0.048318129   -0.278920658
 454   Q   :   -0.198294302   -0.157965873    0.119353935
 455   Q   :    0.263303354   -0.088814635   -0.136995949
 456   Q   :   -0.038322010   -0.050030126    0.291463393
 457   Q   :   -0.213599263    0.139367756   -0.162349805
 458   Q   :   -0.010583322    0.099370034    0.265826798
 459   Q   :    0.219022883   -0.092741757   -0.110916775
 460   Q   :   -0.213680096   -0.004148703   -0.144615668
 461   Q   :   -0.292663469    0.035297437   -0.046089305
 462   Q   :    0.119291409    0.092694039    0.204904159
 463   Q   :    0.173642829   -0.129980038   -0.168737993
 464   Q   :   -0.267920305    0.055863018   -0.053864006
 465   Q   :    0.096279317   -0.274886372   -0.012128334
 466   Q   :    0.175521656    0.198587193    0.071656953
 467   Q   :   -0.165891039   -0.203949399    0.157443455
 468   Q   :    0.079043961    0.275473770    0.088354996
 469   Q   :    0.088123334   -0.075584559   -0.234394402
 470   Q   :   -0.225205297   -0.056275274   -0.161913933
 471   Q   :    0.245526880    0.149412933   -0.061398119
 472   Q   :   -0.013417680   -0.099286778    0.209582641
 473   Q   :   -0.218097834    0.137318655    0.068588489
 474   Q   :    0.061833270   -0.239419506    0.035674874
 475   Q   :    0.166587555    0.111151338   -0.108893392
 476   Q   :   -0.038047759   -0.308828489    0.017126697
 477   Q   :    0.149932084    0.123698866   -0.215895514
 478   Q   :   -0.114157642    0.184185176    0.202794103
 479   Q   :   -0.111303463    0.095450084   -0.245618145
 480   Q   :    0.231169170   -0.116740502    0.056977521
 481   Q   :   -0.126388282    0.025355692    0.191987179
 482   Q   :   -0.279900839   -0.012916697    0.027241669
 483   Q   :    0.143338372    0.066225875   -0.187395673
 484   Q   :    0.136479337   -0.050006957    0.156578919
 485   Q   :    0.184422784   -0.166063659   -0.077021318
 486   Q   :   -0.017902412    0.260527963   -0.046248752
 487   Q   :   -0.174247850   -0.102325993    0.116739859
 488   Q   :    0.036658703    0.189759538   -0.210647525
 489   Q   :    0.143215407   -0.211509608    0.019770670
 490   Q   :   -0.173296795    0.029995351    0.179949813
 491   Q   :   -0.170265310    0.136140837    0.154798111
 492   Q   :    0.084533464    0.069708354   -0.271455538
 493   Q   :    0.078092141   -0.204736923    0.114919409
 494   Q   :   -0.185915114    0.119533066   -0.101797960
 495   Q   :    0.288523548    0.105816069   -0.002725342
 496   Q   :   -0.102320309   -0.222906260    0.108484643
 497   Q   :   -0.179197479    0.016649928   -0.205706091
 498   Q   :    0.048922295    0.130928982    0.229123284
 499   Q   :    0.138940524   -0.155103507   -0.036058007
 500   Q   :    0.103074070    0.210141170   -0.157496542
 501   Q   :   -0.176046105    0.055540092    0.187243447
 502   Q   :    0.062523149   -0.269437674   -0.027783206
 503   Q   :    0.090934599   -0.054247292    0.243665681
 504   Q   :    0.040357271   -0.144011609   -0.243415716
 505   Q   :   -0.133082502    0.197831806    0.000881982
 506   Q   :   -0.058538951   -0.187626597   -0.159693853
 507   Q   :    0.039876100    0.271637174   -0.018060778
 508   Q   :    0.013802370   -0.083517104    0.176331908
 509   Q   :    0.148306410   -0.173907959   -0.106898421
 510   Q   :   -0.278178387   -0.023283372    0.119142000
 511   Q   :    0.121820715    0.204870117   -0.002217703
 512   Q   :    0.120374542   -0.073302398   -0.249724711
 513   Q   :    0.111888071    0.222751824    0.166999131
 514   Q   :   -0.217461876   -0.153841079    0.084656700
 515   Q   :   -0.034848338    0.137715990   -0.205967444
 516   Q   :   -0.070561650    0.038769800    0.238534876
 517   Q   :    0.104571415   -0.181317731   -0.019775712
 518   Q   :    0.205478990    0.212410209    0.021251643
 519   Q   :   -0.060426183   -0.122296992   -0.248242645
 520   Q   :   -0.140750801   -0.089483663    0.224392684
 521   Q   :   -0.153346310   -0.136868553   -0.237729683
 522   Q   :    0.282341094    0.027121008    0.007534202
 523   Q   :   -0.131124938    0.105181125    0.234665571
 524   Q   :    0.157799015   -0.014774703    0.234212278
 525   Q   :   -0.192768681    0.182688199   -0.042837576
 526   Q   :    0.023101970   -0.166188954   -0.190129059
 527   Q   :   -0.197509798   -0.027926551    0.211369735
 528   Q   :    0.119995357    0.247022837   -0.070693475
 529   Q   :    0.089292008   -0.224974529   -0.139267927
 530   Q   :   -0.048114591   -0.111140598   -0.259252832
 531   Q   :    0.174047182    0.204350802    0.068401571
 532   Q   :   -0.124213636   -0.100309485    0.194255029
 533   Q   :   -0.195839428    0.236908477    0.057853708
 534   Q   :    0.029910565   -0.224029357    0.170652456
 535   Q   :    0.172051939   -0.000609712   -0.224388055
 536   Q   :    0.121242065    0.269554098   -0.025716432
 537   Q   :    0.012011101   -0.158190051    0.252084522
 538   Q   :   -0.150587395   -0.113106301   -0.235041393
 539   Q   :   -0.257366318    0.102230829    0.078590927
 540   Q   :    0.169520936    0.076789661   -0.207468294
 541   Q   :    0.103835089   -0.174783415    0.137523578
 542   Q   :   -0.037621833    0.201590613    0.205142288
 543   Q   :   -0.185288613   -0.200034688   -0.089190412
 544   Q   :    0.210354177    0.002694064   -0.122677638
 545   Q   :   -0.118204668    0.026504116    0.234607840
 546   Q   :    0.241199958   -0.078678803   -0.092344844
 547   Q   :   -0.132526010    0.065730965   -0.140191586
 548   Q   :   -0.137121741    0.040574775    0.294550201
 549   Q   :   -0.014656324    0.210124247   -0.200915233
 550   Q   :    0.161608165   -0.252969039   -0.093114339
 551   Q   :    0.207902892    0.154159943    0.141636978
 552   Q   :    0.039441049   -0.200744197   -0.233001576
 553   Q   :   -0.249570264    0.049902410    0.088552026
 554   Q   :    0.088572940   -0.245256993   -0.152738305
 555   Q   :    0.186471050    0.226769922    0.004867796
 556   Q   :   -0.272601568    0.014925838    0.154671365
 557   Q   :    0.075907536    0.077201853    0.221178543
 558   Q   :   -0.214613447   -0.234095845   -0.054498701
 559   Q   :    0.121412832    0.150793355   -0.175511220
 560   Q   :   -0.076496876    0.158920162    0.189471960
 561   Q   :    0.244308773   -0.094503959   -0.068757707
 562   Q   :   -0.166485275   -0.056523047   -0.119978336
 563   Q   :   -0.030787840    0.033163414   -0.233267604
 564   Q   :    0.207184048    0.092149002    0.181197416
 565   Q   :   -0.176335701   -0.128984355    0.059551758
 566   Q   :   -0.041566315   -0.288947915    0.039295642
 567   Q   :    0.272967128    0.072822180   -0.085971727
 568   Q   :   -0.234623553    0.223032802    0.046042988
 569   Q   :    0.065677629    0.254533728   -0.142112733
 570   Q   :    0.004185016   -0.283016674   -0.111314836
 571   Q   :   -0.071218096    0.027579820    0.253240404
 572   Q   :   -0.070559008   -0.262401923   -0.007571442
 573   Q   :   -0.091426900    0.190638609   -0.142471267
 574   Q   :    0.176943203    0.071823137    0.151999182
 575   Q   :   -0.024835504   -0.184633116    0.183201329
 576   Q   :   -0.002878481   -0.017137971   -0.265734880
 577   Q   :    0.024819298    0.205680472    0.070917996
 578   Q   :   -0.009687875    0.159745335    0.245510729
 579   Q   :    0.111959752    0.083310314   -0.227067601
 580   Q   :   -0.094830050   -0.237747365   -0.009135225
 581   Q   :   -0.106734848   -0.248786425   -0.026877321
 582   Q   :    0.216399483    0.049359483    0.201934038
 583   Q   :   -0.108664005    0.202148099   -0.161960836
 584   Q   :   -0.063243066    0.189301368   -0.182349898
 585   Q   :   -0.129279835   -0.081689139    0.223546566
 586   Q   :    0.195483758   -0.107263085   -0.047053888
 587   Q   :   -0.122938191   -0.062031218    0.249943130
 588   Q   :   -0.139650548    0.183156108   -0.219110902
 589   Q   :    0.268854058   -0.112915722   -0.041704472
 590   Q   :   -0.039755016    0.119493381    0.235153654
 591   Q   :    0.221143313   -0.072236511   -0.086019507
 592   Q   :   -0.180742162   -0.039754902   -0.140561904
 593   Q   :   -0.277874811    0.009143910    0.167596030
 594   Q   :    0.207933121   -0.194341613    0.104360299
 595   Q   :    0.079613699    0.171836519   -0.274824597
 596   Q   :    0.256133259   -0.025927484    0.196092781
 597   Q   :    0.032947285    0.000071118   -0.305913471
 598   Q   :   -0.290748980    0.021801691    0.111204007
 599   Q   :    0.265682690   -0.091501492   -0.024525281
 600   Q   :   -0.118507575    0.179122396    0.223075651
 601   Q   :   -0.141591957   -0.090942366   -0.186179892
 602   Q   :    0.044357737   -0.055748315    0.274942575
 603   Q   :    0.214120939   -0.013005489   -0.211636892
 604   Q   :   -0.256109389    0.071174359   -0.057043369
 605   Q   :   -0.249732560   -0.052821329   -0.054075150
 606   Q   :    0.087714034    0.287546501    0.112426323
 607   Q   :    0.174902152   -0.233377722   -0.060527830
 608   Q   :   -0.008565529   -0.039330361    0.323646490
 609   Q   :   -0.165864656   -0.199873453   -0.198788958
 610   Q   :    0.168884102    0.245299450   -0.126828605
 611   Q   :    0.195597446    0.163312993   -0.079625000
 612   Q   :   -0.107869722   -0.035235484    0.260794206
 613   Q   :   -0.089826252   -0.136101425   -0.174337032
 614   Q   :    0.235229119   -0.163449065   -0.065615390
 615   Q   :    0.007908103    0.271601901   -0.018843422
 616   Q   :   -0.239916820   -0.110259911    0.082233322
 617   Q   :    0.134411627    0.086501554   -0.214392544
 618   Q   :   -0.280698174   -0.024440584    0.056585509
 619   Q   :    0.137472703   -0.060449780    0.159737307
 620   Q   :    0.247179834   -0.106611335   -0.114854181
 621   Q   :   -0.090922482   -0.036565414    0.274729817
 622   Q   :   -0.147589546    0.146072575   -0.148132646
 623   Q   :    0.099916061   -0.010200676    0.272375180
 624   Q   :   -0.302009403   -0.002780082   -0.050818260
 625   Q   :    0.201930200    0.016279894   -0.233683803
 626   Q   :    0.131371730    0.085488292    0.224602614
 627   Q   :    0.115977128    0.027070829   -0.303552712
 628   Q   :   -0.248485596   -0.109649241    0.072395477
 629   Q   :    0.065188684    0.054009028   -0.255522902
 630   Q   :   -0.029447255   -0.219169000    0.164697773
 631   Q   :   -0.043296808    0.160307735    0.093185179
 632   Q   :    0.112142834   -0.117936746    0.230253814
 633   Q   :   -0.081762220    0.274226198   -0.011391143
 634   Q   :   -0.036259130   -0.164645508   -0.219514587

Difference to translation invariance:
           :    0.0007141715    0.0005415244    0.0001548142

Difference to rotation invariance:
           :    0.0023672364    0.0107975533   -0.0077674201

Norm of the cartesian gradient     ...    6.3106527627
RMS gradient                       ...    0.1447001655
MAX gradient                       ...    0.3272292116

-------
TIMINGS
-------

Total SCF gradient time            ...      160.075 sec

One electron gradient       ....      20.650 sec  ( 12.9%)
RI-J Coulomb gradient       ....       8.492 sec  (  5.3%)
COSX gradient               ....      98.335 sec  ( 61.4%)
XC gradient                 ....      12.543 sec  (  7.8%)

Maximum memory used throughout the entire SCFGRAD-calculation: 705.1 MB

                            ***************************************
                            *     ORCA property calculations      *
                            ***************************************

                                    ---------------------
                                    Active property flags
                                    ---------------------
   (+) Dipole Moment


------------------------------------------------------------------------------
                       ORCA ELECTRIC PROPERTIES CALCULATION
------------------------------------------------------------------------------

Dipole Moment Calculation                       ... on
Quadrupole Moment Calculation                   ... off
Polarizability Calculation                      ... off
GBWName                                         ... final083.orca.gbw
Electron density                                ... final083.orca.scfp
The origin for moment calculation is the CENTER OF MASS  = (22.053862, 22.739815 20.540026)

-------------
DIPOLE MOMENT
-------------
                                X             Y             Z
Electronic contribution:     -1.75862       0.00559       0.21329
Nuclear contribution   :     13.84830      -2.87898       4.20916
                        -----------------------------------------
Total Dipole Moment    :     12.08967      -2.87339       4.42245
                        -----------------------------------------
Magnitude (a.u.)       :     13.18994
Magnitude (Debye)      :     33.52617



--------------------
Rotational spectrum 
--------------------
 
Rotational constants in cm-1:     0.002977     0.001056     0.001012 
Rotational constants in MHz :    89.253982    31.660369    30.353177 

 Dipole components along the rotational axes: 
x,y,z [a.u.] :     8.215017     4.051273    -9.490799 
x,y,z [Debye]:    20.880915    10.297518   -24.123693 

 

Timings for individual modules:

Sum of individual times         ...      723.661 sec (=  12.061 min)
GTO integral calculation        ...       11.851 sec (=   0.198 min)   1.6 %
SCF iterations                  ...      547.865 sec (=   9.131 min)  75.7 %
SCF Gradient evaluation         ...      163.945 sec (=   2.732 min)  22.7 %
                             ****ORCA TERMINATED NORMALLY****
TOTAL RUN TIME: 0 days 0 hours 12 minutes 11 seconds 675 msec
