
                                 *****************
                                 * O   R   C   A *
                                 *****************

                                            #,                                       
                                            ###                                      
                                            ####                                     
                                            #####                                    
                                            ######                                   
                                           ########,                                 
                                     ,,################,,,,,                         
                               ,,#################################,,                 
                          ,,##########################################,,             
                       ,#########################################, ''#####,          
                    ,#############################################,,   '####,        
                  ,##################################################,,,,####,       
                ,###########''''           ''''###############################       
              ,#####''   ,,,,##########,,,,          '''####'''          '####       
            ,##' ,,,,###########################,,,                        '##       
           ' ,,###''''                  '''############,,,                           
         ,,##''                                '''############,,,,        ,,,,,,###''
      ,#''                                            '''#######################'''  
     '                                                          ''''####''''         
             ,#######,   #######,   ,#######,      ##                                
            ,#'     '#,  ##    ##  ,#'     '#,    #''#        ######   ,####,        
            ##       ##  ##   ,#'  ##            #'  '#       #        #'  '#        
            ##       ##  #######   ##           ,######,      #####,   #    #        
            '#,     ,#'  ##    ##  '#,     ,#' ,#      #,         ##   #,  ,#        
             '#######'   ##     ##  '#######'  #'      '#     #####' # '####'        



                  #######################################################
                  #                        -***-                        #
                  #          Department of theory and spectroscopy      #
                  #    Directorship and core code : Frank Neese         #
                  #        Max Planck Institute fuer Kohlenforschung    #
                  #                Kaiser Wilhelm Platz 1               #
                  #                 D-45470 Muelheim/Ruhr               #
                  #                      Germany                        #
                  #                                                     #
                  #                  All rights reserved                #
                  #                        -***-                        #
                  #######################################################


                         Program Version 5.0.3 -  RELEASE  -


 With contributions from (in alphabetic order):
   Daniel Aravena         : Magnetic Suceptibility
   Michael Atanasov       : Ab Initio Ligand Field Theory (pilot matlab implementation)
   Alexander A. Auer      : GIAO ZORA, VPT2 properties, NMR spectrum
   Ute Becker             : Parallelization
   Giovanni Bistoni       : ED, misc. LED, open-shell LED, HFLD
   Martin Brehm           : Molecular dynamics
   Dmytro Bykov           : SCF Hessian
   Vijay G. Chilkuri      : MRCI spin determinant printing, contributions to CSF-ICE
   Dipayan Datta          : RHF DLPNO-CCSD density
   Achintya Kumar Dutta   : EOM-CC, STEOM-CC
   Dmitry Ganyushin       : Spin-Orbit,Spin-Spin,Magnetic field MRCI
   Miquel Garcia          : C-PCM and meta-GGA Hessian, CC/C-PCM, Gaussian charge scheme
   Yang Guo               : DLPNO-NEVPT2, F12-NEVPT2, CIM, IAO-localization
   Andreas Hansen         : Spin unrestricted coupled pair/coupled cluster methods
   Benjamin Helmich-Paris : MC-RPA, TRAH-SCF, COSX integrals
   Lee Huntington         : MR-EOM, pCC
   Robert Izsak           : Overlap fitted RIJCOSX, COSX-SCS-MP3, EOM
   Marcus Kettner         : VPT2
   Christian Kollmar      : KDIIS, OOCD, Brueckner-CCSD(T), CCSD density, CASPT2, CASPT2-K
   Simone Kossmann        : Meta GGA functionals, TD-DFT gradient, OOMP2, MP2 Hessian
   Martin Krupicka        : Initial AUTO-CI
   Lucas Lang             : DCDCAS
   Marvin Lechner         : AUTO-CI (C++ implementation), FIC-MRCC
   Dagmar Lenk            : GEPOL surface, SMD
   Dimitrios Liakos       : Extrapolation schemes; Compound Job, initial MDCI parallelization
   Dimitrios Manganas     : Further ROCIS development; embedding schemes
   Dimitrios Pantazis     : SARC Basis sets
   Anastasios Papadopoulos: AUTO-CI, single reference methods and gradients
   Taras Petrenko         : DFT Hessian,TD-DFT gradient, ASA, ECA, R-Raman, ABS, FL, XAS/XES, NRVS
   Peter Pinski           : DLPNO-MP2, DLPNO-MP2 Gradient
   Christoph Reimann      : Effective Core Potentials
   Marius Retegan         : Local ZFS, SOC
   Christoph Riplinger    : Optimizer, TS searches, QM/MM, DLPNO-CCSD(T), (RO)-DLPNO pert. Triples
   Tobias Risthaus        : Range-separated hybrids, TD-DFT gradient, RPA, STAB
   Michael Roemelt        : Original ROCIS implementation
   Masaaki Saitow         : Open-shell DLPNO-CCSD energy and density
   Barbara Sandhoefer     : DKH picture change effects
   Avijit Sen             : IP-ROCIS
   Kantharuban Sivalingam : CASSCF convergence, NEVPT2, FIC-MRCI
   Bernardo de Souza      : ESD, SOC TD-DFT
   Georgi Stoychev        : AutoAux, RI-MP2 NMR, DLPNO-MP2 response
   Willem Van den Heuvel  : Paramagnetic NMR
   Boris Wezisla          : Elementary symmetry handling
   Frank Wennmohs         : Technical directorship


 We gratefully acknowledge several colleagues who have allowed us to
 interface, adapt or use parts of their codes:
   Stefan Grimme, W. Hujo, H. Kruse, P. Pracht,  : VdW corrections, initial TS optimization,
                  C. Bannwarth, S. Ehlert          DFT functionals, gCP, sTDA/sTD-DF
   Ed Valeev, F. Pavosevic, A. Kumar             : LibInt (2-el integral package), F12 methods
   Garnet Chan, S. Sharma, J. Yang, R. Olivares  : DMRG
   Ulf Ekstrom                                   : XCFun DFT Library
   Mihaly Kallay                                 : mrcc  (arbitrary order and MRCC methods)
   Jiri Pittner, Ondrej Demel                    : Mk-CCSD
   Frank Weinhold                                : gennbo (NPA and NBO analysis)
   Christopher J. Cramer and Donald G. Truhlar   : smd solvation model
   Lars Goerigk                                  : TD-DFT with DH, B97 family of functionals
   V. Asgeirsson, H. Jonsson                     : NEB implementation
   FAccTs GmbH                                   : IRC, NEB, NEB-TS, DLPNO-Multilevel, CI-OPT
                                                   MM, QMMM, 2- and 3-layer-ONIOM, Crystal-QMMM,
                                                   LR-CPCM, SF, NACMEs, symmetry and pop. for TD-DFT,
                                                   nearIR, NL-DFT gradient (VV10), updates on ESD,
                                                   ML-optimized integration grids
   S Lehtola, MJT Oliveira, MAL Marques          : LibXC Library
   Liviu Ungur et al                             : ANISO software


 Your calculation uses the libint2 library for the computation of 2-el integrals
 For citations please refer to: http://libint.valeyev.net

 Your ORCA version has been built with support for libXC version: 5.1.0
 For citations please refer to: https://tddft.org/programs/libxc/

 This ORCA versions uses:
   CBLAS   interface :  Fast vector & matrix operations
   LAPACKE interface :  Fast linear algebra routines
   SCALAPACK package :  Parallel linear algebra routines
   Shared memory     :  Shared parallel matrices
   BLAS/LAPACK       :  OpenBLAS 0.3.15  USE64BITINT DYNAMIC_ARCH NO_AFFINITY SkylakeX SINGLE_THREADED
        Core in use  :  SkylakeX
   Copyright (c) 2011-2014, The OpenBLAS Project


================================================================================

----- Orbital basis set information -----
Your calculation utilizes the basis: def2-SVP
   F. Weigend and R. Ahlrichs, Phys. Chem. Chem. Phys. 7, 3297 (2005).

The basis set includes element-specific modifications.

Your calculation utilizes the basis: aug-cc-pVTZ 
    H, B-Ne : Obtained from the ccRepo (grant-hill.group.shef.ac.uk/ccrepo) Feb. 2017
              R. A. Kendall, T. H. Dunning, Jr., R. J. Harrison, J. Chem. Phys. 96, 6796 (1992)
         He : Obtained from the ccRepo (grant-hill.group.shef.ac.uk/ccrepo) Feb. 2017
              D. E. Woon, T. H. Dunning, Jr., J. Chem. Phys. 100, 2975 (1994)
  Li-Be, Na : Obtained from the ccRepo (grant-hill.group.shef.ac.uk/ccrepo) Feb. 2017
              B. P. Prascher, D. E. Woon, K. A. Peterson, T. H. Dunning, Jr., A. K. Wilson, Theor. Chem. Acc. 128, 69 (2011)
         Mg : Obtained from the Peterson Research Group Website (tyr0.chem.wsu.edu/~kipeters) Feb. 2017
              B. P. Prascher, D. E. Woon, K. A. Peterson, T. H. Dunning, Jr., A. K. Wilson, Theor. Chem. Acc. 128, 69 (2011)
      Al-Ar : Obtained from the ccRepo (grant-hill.group.shef.ac.uk/ccrepo) Feb. 2017
              D. E. Woon, T. H. Dunning, Jr., J. Chem. Phys. 98, 1358 (1993)
      Sc-Zn : Obtained from the ccRepo (grant-hill.group.shef.ac.uk/ccrepo) Feb. 2017
              N. B. Balabanov, K. A. Peterson, J. Chem. Phys. 123, 064107 (2005)
              N. B. Balabanov, K. A. Peterson, J. Chem. Phys. 125, 074110 (2006)
      Ga-Kr : Obtained from the ccRepo (grant-hill.group.shef.ac.uk/ccrepo) Feb. 2017
              A. K. Wilson, D. E. Woon, K. A. Peterson, T. H. Dunning, Jr., J. Chem. Phys. 110, 7667 (1999)
     Ag, Au : Obtained from the Peterson Research Group Website (tyr0.chem.wsu.edu/~kipeters) Feb. 2017
              K. A. Peterson, C. Puzzarini, Theor. Chem. Acc. 114, 283 (2005)

Your calculation utilizes the basis: cc-pVTZ 
       H, B-Ne : Obtained from the ccRepo (grant-hill.group.shef.ac.uk/ccrepo) Feb. 2017
                 T. H. Dunning, Jr., J. Chem. Phys. 90, 1007 (1989)
            He : Obtained from the ccRepo (grant-hill.group.shef.ac.uk/ccrepo) Feb. 2017
                 D. E. Woon, T. H. Dunning, Jr., J. Chem. Phys. 100, 2975 (1994)
  Li-Be, Na-Mg : Obtained from the ccRepo (grant-hill.group.shef.ac.uk/ccrepo) Feb. 2017
                 B. P. Prascher, D. E. Woon, K. A. Peterson, T. H. Dunning, Jr., A. K. Wilson, Theor. Chem. Acc. 128, 69 (2011)
         Al-Ar : Obtained from the ccRepo (grant-hill.group.shef.ac.uk/ccrepo) Feb. 2017
                 D. E. Woon, T. H. Dunning, Jr., J. Chem. Phys. 98, 1358 (1993)
            Ca : Obtained from the Peterson Research Group Website (tyr0.chem.wsu.edu/~kipeters) Feb. 2017
                 J. Koput, K. A. Peterson, J. Phys. Chem. 106, 9595 (2002)
         Sc-Zn : Obtained from the ccRepo (grant-hill.group.shef.ac.uk/ccrepo) Feb. 2017
                 N. B. Balabanov, K. A. Peterson, J. Chem. Phys. 123, 064107 (2005)
                 N. B. Balabanov, K. A. Peterson, J. Chem. Phys. 125, 074110 (2006)
         Ga-Kr : Obtained from the ccRepo (grant-hill.group.shef.ac.uk/ccrepo) Feb. 2017
                 A. K. Wilson, D. E. Woon, K. A. Peterson, T. H. Dunning, Jr., J. Chem. Phys. 110, 7667 (1999)
             Y : Obtained from the ccRepo (grant-hill.group.shef.ac.uk/ccrepo) Feb. 2017
                 K. A. Peterson, D. Figgen, M. Dolg, H. Stoll, J. Chem. Phys. 126, 124101 (2007)
        Ag, Au : Obtained from the Peterson Research Group Website (tyr0.chem.wsu.edu/~kipeters) Feb. 2017
                 K. A. Peterson, C. Puzzarini, Theor. Chem. Acc. 114, 283 (2005)

----- AuxJ basis set information -----
Your calculation utilizes the auxiliary basis: def2/J
   F. Weigend, Phys. Chem. Chem. Phys. 8, 1057 (2006).

================================================================================
                                        WARNINGS
                       Please study these warnings very carefully!
================================================================================

WARNING: The globally-selected AuxJ basis set is optimized for use with ECPs
         Make sure a suitable alternative is explicitly given all heavy elements (Z>36)

INFO   : the flag for use of the SHARK integral package has been found!

================================================================================
                                       INPUT FILE
================================================================================
NAME = final076.orca.inp
|  1> ! NoMOPrint PrintBasis #MINIPRINT SMALLPRINT LARGEPRINT
|  2> ! ALLPOP XYZFILE
|  3> #! BP86 3-21G   TightSCF
|  4> ! ENGRAD
|  5> ! B3LYP NormalPNO PModel #DecontractAux
|  6> #! VerySlowConv 
|  7>  %maxcore 5000
|  8>  %scf  maxiter   500  end 
|  9> 
| 10> %pal
| 11>     nprocs 32
| 12> end
| 13> 
| 14> %basis
| 15>     NewGTO O    # New basis for oxygen
| 16>         "aug-cc-pVTZ"
| 17>     end
| 18>     NewGTO C    # New basis for carbon
| 19>         "aug-cc-pVTZ"
| 20>     end
| 21>     NewGTO H    # New basis for hydrogen
| 22>         "cc-pVTZ"
| 23>     end
| 24> end
| 25> 
| 26> * xyz 0   1
| 27>   C  9.23  11.61  11.99  #1
| 28>   H  9.96  11.7  12.79  #2
| 29>   H  8.29  11.23  12.37  #3
| 30>   C  9.88  10.72  10.96  #4
| 31>   H  9.25  9.89  10.89  #5
| 32>   H  9.99  11.24  9.99  #6
| 33>   C  11.24  10.06  11.12  #7
| 34>   H  11.24  9.45  12.04  #8
| 35>   H  12.01  10.76  11.36  #9
| 36>   C  11.75  9.21  10.01  #10
| 37>   H  11.49  9.62  8.98  #11
| 38>   H  11.35  8.21  10.13  #12
| 39>   O  13.12  9.1  10.14  #13
| 40>   H  13.48  8.42  9.5  #14
| 41>   O  8.94  12.91  11.47  #15
| 42>   H  8.6  13.56  12.12  #16
| 43>   O  15.46  9.79  11.16  #17
| 44>   H  15.95  8.92  10.96  #18
| 45>   H  14.6  9.69  10.78  #19
| 46>   O  13.22  12.79  14.13  #20
| 47>   H  12.69  13.57  13.99  #21
| 48>   H  13.15  12.28  13.29  #22
| 49>   O  16.04  9.85  7.93  #23
| 50>   H  15.66  10.05  8.8  #24
| 51>   H  16.36  8.96  7.98  #25
| 52>   O  8.84  15.19  13.39  #26
| 53>   H  8.85  16.13  13.29  #27
| 54>   H  8.31  15.01  14.21  #28
| 55>   O  13.19  12.75  11.41  #29
| 56>   H  12.66  13.61  11.45  #30
| 57>   H  14.15  13.01  11.3  #31
| 58>   O  15.16  12.19  6.07  #32
| 59>   H  15.24  11.78  6.92  #33
| 60>   H  16.02  12.24  5.69  #34
| 61>   O  11.55  14.86  14.26  #35
| 62>   H  11.88  15.47  14.9  #36
| 63>   H  10.62  15  14.13  #37
| 64>   O  15.4  9.15  5.11  #38
| 65>   H  15.53  9.35  6.07  #39
| 66>   H  15.42  8.17  5.12  #40
| 67>   O  9.55  18.01  13.14  #41
| 68>   H  9.66  18.24  12.19  #42
| 69>   H  9.47  18.82  13.68  #43
| 70>   O  12.08  15.2  11.46  #44
| 71>   H  12.86  15.76  11.24  #45
| 72>   H  12.21  15.11  12.43  #46
| 73>   O  17.06  7.73  10.51  #47
| 74>   H  18  8.03  10.35  #48
| 75>   H  17.12  6.85  10.77  #49
| 76>   O  6.88  13.06  14.53  #50
| 77>   H  6.22  13.58  15.07  #51
| 78>   H  6.79  12.15  14.88  #52
| 79>   O  12.2  12.79  8.87  #53
| 80>   H  12.48  12.75  9.79  #54
| 81>   H  11.54  13.49  8.81  #55
| 82>   O  18.02  11.93  8.5  #56
| 83>   H  18.33  12.04  9.45  #57
| 84>   H  17.54  11.14  8.36  #58
| 85>   O  10.15  8.41  7.13  #59
| 86>   H  9.77  7.97  6.34  #60
| 87>   H  9.39  8.54  7.78  #61
| 88>   O  11.8  6.37  7.61  #62
| 89>   H  11.34  7.17  7.33  #63
| 90>   H  12.75  6.51  7.62  #64
| 91>   O  15.29  13.9  15.49  #65
| 92>   H  16.12  13.98  14.95  #66
| 93>   H  14.86  13.1  15.16  #67
| 94>   O  12.22  10.23  15.11  #68
| 95>   H  11.92  11.17  14.97  #69
| 96>   H  12.95  10.1  14.43  #70
| 97>   O  10.68  7.88  14.33  #71
| 98>   H  10.87  8.73  14.74  #72
| 99>   H  10.41  7.34  15.07  #73
|100>   O  7.07  8.8  11.57  #74
|101>   H  6.32  8.18  11.59  #75
|102>   H  7.75  8.33  12.08  #76
|103>   O  9.94  14.63  9.81  #77
|104>   H  9.56  14  10.45  #78
|105>   H  10.8  14.96  10.22  #79
|106>   O  6.99  16.25  10.98  #80
|107>   H  7.48  16.36  10.16  #81
|108>   H  7.17  15.34  11.29  #82
|109>   O  6.1  14.04  12.13  #83
|110>   H  6.46  13.72  12.97  #84
|111>   H  6.2  13.27  11.54  #85
|112>   O  5.95  11.37  10.88  #86
|113>   H  6.36  10.69  11.42  #87
|114>   H  5.97  11.02  9.99  #88
|115>   O  18.26  7.46  7.34  #89
|116>   H  18.91  7.78  7.98  #90
|117>   H  18.52  7.94  6.54  #91
|118>   O  13.64  6.72  12.4  #92
|119>   H  13.34  7.63  12.68  #93
|120>   H  14.38  7.01  11.89  #94
|121>   O  11.12  10.48  5.57  #95
|122>   H  10.87  9.93  6.31  #96
|123>   H  11.38  11.3  5.94  #97
|124>   O  15.61  14  11.12  #98
|125>   H  16.2  14.74  11.4  #99
|126>   H  15.72  14.05  10.12  #100
|127>   O  14.43  9.43  13.56  #101
|128>   H  14.99  8.85  14.13  #102
|129>   H  14.97  9.48  12.74  #103
|130>   O  17.4  11.95  11.96  #104
|131>   H  16.81  11.17  11.86  #105
|132>   H  16.85  12.64  11.63  #106
|133>   O  14.45  6.76  8.01  #107
|134>   H  14.84  6.65  7.09  #108
|135>   H  15.09  6.46  8.67  #109
|136>   O  8.01  7.93  8.89  #110
|137>   H  7.61  8.45  9.61  #111
|138>   H  7.26  7.52  8.51  #112
|139>   Q  0.6645  8.12$  7.03$  19.29$
|140>   Q  0.6645  6.97$  6.2$  18.64$
|141>   Q  -1.3290  7.51$  6.83$  18.69$
|142>   Q  0.6645  14.61$  5.89$  4.99$
|143>   Q  0.6645  16.08$  5.67$  5.09$
|144>   Q  -1.3290  15.4$  6.07$  5.24$
|145>   Q  0.6645  7.74$  9.92$  6.18$
|146>   Q  0.6645  8.64$  11.03$  6$
|147>   Q  -1.3290  8.13$  10.61$  6.44$
|148>   Q  0.6645  11.6$  17.61$  13.68$
|149>   Q  0.6645  13.14$  17.54$  13.78$
|150>   Q  -1.3290  12.41$  17.91$  13.61$
|151>   Q  0.6645  14.31$  6.71$  -0.2$
|152>   Q  0.6645  14.11$  7.79$  0.78$
|153>   Q  -1.3290  14.55$  7.34$  0.27$
|154>   Q  0.6645  6.7$  2.27$  8.56$
|155>   Q  0.6645  5.45$  3.05$  9.08$
|156>   Q  -1.3290  6.17$  2.91$  8.64$
|157>   Q  0.6645  13.97$  17.98$  9.82$
|158>   Q  0.6645  13.64$  18.24$  11.33$
|159>   Q  -1.3290  14.02$  17.85$  10.67$
|160>   Q  0.6645  6.84$  21.94$  16.46$
|161>   Q  0.6645  5.75$  20.74$  16.38$
|162>   Q  -1.3290  6.19$  21.43$  16.69$
|163>   Q  0.6645  9.24$  19.57$  15.61$
|164>   Q  0.6645  8.82$  20.98$  15.13$
|165>   Q  -1.3290  9.12$  20.19$  15.05$
|166>   Q  0.6645  19.38$  16.73$  10.89$
|167>   Q  0.6645  18.99$  15.72$  11.97$
|168>   Q  -1.3290  18.87$  16.14$  11.26$
|169>   Q  0.6645  1.25$  6.69$  7.1$
|170>   Q  0.6645  -0.22$  6.64$  7.6$
|171>   Q  -1.3290  0.42$  6.95$  7.14$
|172>   Q  0.6645  21.63$  6.41$  10.32$
|173>   Q  0.6645  20.78$  7.54$  9.83$
|174>   Q  -1.3290  21.02$  6.76$  9.87$
|175>   Q  0.6645  15.03$  15.89$  6.03$
|176>   Q  0.6645  15.81$  16$  7.38$
|177>   Q  -1.3290  15.45$  16.27$  6.65$
|178>   Q  0.6645  8.45$  6.34$  9.85$
|179>   Q  0.6645  9.37$  5.54$  10.89$
|180>   Q  -1.3290  8.7$  5.67$  10.34$
|181>   Q  0.6645  3.76$  5.33$  14.03$
|182>   Q  0.6645  3.29$  6.78$  13.88$
|183>   Q  -1.3290  3.23$  5.99$  14.09$
|184>   Q  0.6645  18.38$  14.26$  6.31$
|185>   Q  0.6645  19.01$  15.62$  6.5$
|186>   Q  -1.3290  18.8$  14.86$  6.75$
|187>   Q  0.6645  16.88$  8.49$  2.04$
|188>   Q  0.6645  16$  9.24$  3.07$
|189>   Q  -1.3290  16.52$  9.15$  2.42$
|190>   Q  0.6645  16.99$  14.77$  18.65$
|191>   Q  0.6645  16.17$  14.15$  17.51$
|192>   Q  -1.3290  16.85$  14.3$  17.97$
|193>   Q  0.6645  6.41$  4.73$  5.59$
|194>   Q  0.6645  6.27$  3.37$  4.88$
|195>   Q  -1.3290  6.17$  4.19$  4.97$
|196>   Q  0.6645  8.61$  1.08$  10.05$
|197>   Q  0.6645  7.4$  0.22$  9.86$
|198>   Q  -1.3290  7.98$  0.78$  9.62$
|199>   Q  0.6645  7.54$  4.24$  11.45$
|200>   Q  0.6645  6.23$  3.36$  11.69$
|201>   Q  -1.3290  6.89$  3.87$  11.9$
|202>   Q  0.6645  19.49$  10.05$  13.16$
|203>   Q  0.6645  19.23$  8.68$  13.94$
|204>   Q  -1.3290  19.47$  9.54$  13.84$
|205>   Q  0.6645  11.36$  14.11$  5.7$
|206>   Q  0.6645  9.96$  14.5$  5.64$
|207>   Q  -1.3290  10.77$  14.66$  5.62$
|208>   Q  0.6645  9.82$  14.24$  17.92$
|209>   Q  0.6645  9$  14.97$  16.87$
|210>   Q  -1.3290  9.57$  14.43$  17.15$
|211>   Q  0.6645  7.78$  16.59$  17.48$
|212>   Q  0.6645  6.85$  16.23$  16.37$
|213>   Q  -1.3290  7.59$  16.39$  16.7$
|214>   Q  0.6645  16.44$  7.48$  15.98$
|215>   Q  0.6645  16.59$  8.92$  15.46$
|216>   Q  -1.3290  16.18$  8.27$  15.71$
|217>   Q  0.6645  10.62$  17.03$  10.01$
|218>   Q  0.6645  11.24$  18.2$  10.62$
|219>   Q  -1.3290  10.59$  17.78$  10.35$
|220>   Q  0.6645  16.67$  7.28$  17.95$
|221>   Q  0.6645  16.37$  5.72$  17.82$
|222>   Q  -1.3290  16.75$  6.44$  17.62$
|223>   Q  0.6645  12.95$  8.4$  19.11$
|224>   Q  0.6645  12.53$  8.7$  20.5$
|225>   Q  -1.3290  12.6$  8.21$  19.84$
|226>   Q  0.6645  11.77$  4.12$  3.49$
|227>   Q  0.6645  11.61$  2.7$  2.94$
|228>   Q  -1.3290  12.05$  3.4$  3.16$
|229>   Q  0.6645  13.33$  10.9$  20.39$
|230>   Q  0.6645  13.64$  10.52$  21.84$
|231>   Q  -1.3290  13.77$  10.5$  21.02$
|232>   Q  0.6645  17.66$  6.77$  12.88$
|233>   Q  0.6645  18.79$  6.55$  13.83$
|234>   Q  -1.3290  18.27$  7.01$  13.43$
|235>   Q  0.6645  6.54$  10.43$  7.97$
|236>   Q  0.6645  5.39$  11.28$  7.43$
|237>   Q  -1.3290  5.76$  10.76$  7.98$
|238>   Q  0.6645  17.55$  0.87$  11.55$
|239>   Q  0.6645  17.72$  0.44$  12.99$
|240>   Q  -1.3290  17.98$  0.71$  12.26$
|241>   Q  0.6645  6.57$  18.3$  19.03$
|242>   Q  0.6645  5.78$  18.8$  17.64$
|243>   Q  -1.3290  6.16$  18.85$  18.45$
|244>   Q  0.6645  15.98$  9.32$  19$
|245>   Q  0.6645  15.38$  8.41$  20.01$
|246>   Q  -1.3290  15.85$  8.59$  19.33$
|247>   Q  0.6645  17.59$  15.67$  9.5$
|248>   Q  0.6645  17.49$  14.87$  8.21$
|249>   Q  -1.3290  17.19$  15.24$  8.89$
|250>   Q  0.6645  2.84$  15.17$  13.83$
|251>   Q  0.6645  2.16$  16.3$  14.7$
|252>   Q  -1.3290  2.71$  15.68$  14.5$
|253>   Q  0.6645  10.57$  0.1$  11.69$
|254>   Q  0.6645  10.66$  1.51$  11.36$
|255>   Q  -1.3290  10.23$  0.81$  11.42$
|256>   Q  0.6645  11.15$  11.26$  20.52$
|257>   Q  0.6645  11.19$  10.8$  19.11$
|258>   Q  -1.3290  11.42$  11.31$  19.74$
|259>   Q  0.6645  0.56$  10.08$  8.33$
|260>   Q  0.6645  0.3$  8.74$  7.5$
|261>   Q  -1.3290  0.14$  9.55$  7.78$
|262>   Q  0.6645  12.27$  16.94$  7.78$
|263>   Q  0.6645  11.9$  15.58$  7.2$
|264>   Q  -1.3290  11.83$  16.18$  7.76$
|265>   Q  0.6645  7.93$  13.24$  6.86$
|266>   Q  0.6645  7.46$  13.74$  5.4$
|267>   Q  -1.3290  8.02$  13.53$  6.01$
|268>   Q  0.6645  13.67$  19.02$  7.72$
|269>   Q  0.6645  14.37$  17.68$  7.38$
|270>   Q  -1.3290  13.8$  18.18$  7.76$
|271>   Q  0.6645  16.38$  4.96$  12.47$
|272>   Q  0.6645  17.45$  4.66$  11.37$
|273>   Q  -1.3290  16.77$  5.03$  11.73$
|274>   Q  0.6645  11.24$  22.29$  8.58$
|275>   Q  0.6645  9.87$  21.57$  8.84$
|276>   Q  -1.3290  10.67$  21.64$  8.55$
|277>   Q  0.6645  6.71$  16.12$  4.97$
|278>   Q  0.6645  7.26$  15.89$  3.62$
|279>   Q  -1.3290  7.34$  15.97$  4.46$
|280>   Q  0.6645  5.31$  14.34$  2.94$
|281>   Q  0.6645  3.85$  14.53$  3.58$
|282>   Q  -1.3290  4.59$  14.14$  3.42$
|283>   Q  0.6645  16.1$  4.57$  14.53$
|284>   Q  0.6645  14.79$  5.42$  14.35$
|285>   Q  -1.3290  15.39$  4.86$  14.16$
|286>   Q  0.6645  0.21$  16.19$  11.02$
|287>   Q  0.6645  -0.41$  14.92$  10.95$
|288>   Q  -1.3290  0.13$  15.39$  11.25$
|289>   Q  0.6645  4.09$  21.56$  11.78$
|290>   Q  0.6645  5.16$  21.19$  12.83$
|291>   Q  -1.3290  4.43$  21.47$  12.56$
|292>   Q  0.6645  5.03$  12.94$  5.16$
|293>   Q  0.6645  4.89$  13.25$  6.65$
|294>   Q  -1.3290  4.84$  12.75$  5.99$
|295>   Q  0.6645  12.17$  10.25$  4.14$
|296>   Q  0.6645  13.65$  9.88$  4.11$
|297>   Q  -1.3290  12.88$  9.94$  3.78$
|298>   Q  0.6645  10.9$  3.07$  16.98$
|299>   Q  0.6645  9.47$  3.07$  17.55$
|300>   Q  -1.3290  10.07$  2.98$  16.95$
|301>   Q  0.6645  4.74$  17.14$  6.19$
|302>   Q  0.6645  5.19$  16.21$  7.31$
|303>   Q  -1.3290  5.32$  16.77$  6.73$
|304>   Q  0.6645  12.76$  13.98$  2.11$
|305>   Q  0.6645  11.9$  13.49$  3.28$
|306>   Q  -1.3290  12.61$  13.65$  2.87$
|307>   Q  0.6645  19.27$  3.64$  11.02$
|308>   Q  0.6645  18.67$  2.62$  12.15$
|309>   Q  -1.3290  18.97$  3.38$  11.82$
|310>   Q  0.6645  -0.23$  9.74$  16.2$
|311>   Q  0.6645  -0.61$  9.54$  14.78$
|312>   Q  -1.3290  -0.06$  9.58$  15.4$
|313>   Q  0.6645  14.26$  17.27$  18.18$
|314>   Q  0.6645  14.66$  17.83$  16.79$
|315>   Q  -1.3290  14.15$  17.7$  17.45$
|316>   Q  0.6645  5.42$  18.64$  7.7$
|317>   Q  0.6645  5.71$  19.81$  8.71$
|318>   Q  -1.3290  5.28$  19.38$  8.12$
|319>   Q  0.6645  3.1$  12.52$  11.14$
|320>   Q  0.6645  4.15$  11.49$  10.67$
|321>   Q  -1.3290  3.4$  11.78$  10.88$
|322>   Q  0.6645  10.64$  8.77$  17.14$
|323>   Q  0.6645  10.4$  10.25$  16.95$
|324>   Q  -1.3290  10.66$  9.57$  17.38$
|325>   Q  0.6645  15.94$  3.31$  18.39$
|326>   Q  0.6645  14.56$  3.93$  17.83$
|327>   Q  -1.3290  15.34$  3.93$  18.21$
|328>   Q  0.6645  3.42$  14.49$  11.64$
|329>   Q  0.6645  1.86$  14.33$  11.63$
|330>   Q  -1.3290  2.68$  14.14$  11.84$
|331>   Q  0.6645  7.11$  4.32$  7.57$
|332>   Q  0.6645  8.32$  5.13$  7.21$
|333>   Q  -1.3290  7.53$  4.96$  7.23$
|334>   Q  0.6645  10.27$  6.48$  17.44$
|335>   Q  0.6645  9.01$  7.35$  17.11$
|336>   Q  -1.3290  9.8$  7.08$  17.01$
|337>   Q  0.6645  19.34$  11.99$  6.89$
|338>   Q  0.6645  19.26$  10.87$  5.68$
|339>   Q  -1.3290  19.51$  11.62$  6.11$
|340>   Q  0.6645  13.18$  19.63$  14.89$
|341>   Q  0.6645  13.51$  19.43$  16.3$
|342>   Q  -1.3290  13.49$  19.87$  15.61$
|343>   Q  0.6645  11.87$  3.85$  14.32$
|344>   Q  0.6645  10.35$  3.77$  14.75$
|345>   Q  -1.3290  11.04$  4.11$  14.38$
|346>   Q  0.6645  11.9$  7.5$  1.81$
|347>   Q  0.6645  12.68$  8.23$  2.81$
|348>   Q  -1.3290  12.51$  7.59$  2.32$
|349>   Q  0.6645  6.34$  3.2$  16.59$
|350>   Q  0.6645  7.42$  3.78$  17.51$
|351>   Q  -1.3290  6.89$  3.79$  16.84$
|352>   Q  0.6645  8.25$  2.56$  6.01$
|353>   Q  0.6645  9.74$  2.88$  6.4$
|354>   Q  -1.3290  9.07$  2.76$  5.88$
|355>   Q  0.6645  6.13$  9.13$  4.2$
|356>   Q  0.6645  5.71$  8.35$  5.57$
|357>   Q  -1.3290  6.22$  8.6$  4.89$
|358>   Q  0.6645  13.66$  2.14$  14.62$
|359>   Q  0.6645  14.16$  3.45$  14.1$
|360>   Q  -1.3290  13.59$  2.81$  14.17$
|361>   Q  0.6645  2.23$  18.47$  9.22$
|362>   Q  0.6645  3.58$  19.2$  9.12$
|363>   Q  -1.3290  2.86$  18.98$  9.5$
|364>   Q  0.6645  16.18$  1.77$  9.83$
|365>   Q  0.6645  16.56$  0.35$  9.38$
|366>   Q  -1.3290  16.46$  0.99$  9.94$
|367>   Q  0.6645  9.51$  7.04$  13.14$
|368>   Q  0.6645  8.18$  6.64$  13.77$
|369>   Q  -1.3290  8.69$  6.9$  13.16$
|370>   Q  0.6645  1.65$  10.66$  15.66$
|371>   Q  0.6645  2.97$  11.57$  15.36$
|372>   Q  -1.3290  2.3$  11.23$  15.85$
|373>   Q  0.6645  14.08$  3.88$  1.93$
|374>   Q  0.6645  15.36$  4.74$  1.7$
|375>   Q  -1.3290  14.91$  4.06$  1.95$
|376>   Q  0.6645  11.92$  5.61$  11.75$
|377>   Q  0.6645  10.87$  4.86$  12.48$
|378>   Q  -1.3290  11.22$  5.17$  11.8$
|379>   Q  0.6645  3.88$  9.73$  13.88$
|380>   Q  0.6645  3.33$  8.95$  15.01$
|381>   Q  -1.3290  3.43$  9.14$  14.2$
|382>   Q  0.6645  19.43$  11.53$  11.51$
|383>   Q  0.6645  20.82$  10.71$  11.48$
|384>   Q  -1.3290  19.96$  10.83$  11.44$
|385>   Q  0.6645  6.04$  5.73$  10.96$
|386>   Q  0.6645  5.83$  6.62$  9.7$
|387>   Q  -1.3290  5.74$  6.41$  10.52$
|388>   Q  0.6645  6.39$  16.97$  12.8$
|389>   Q  0.6645  5.04$  17.56$  13.27$
|390>   Q  -1.3290  5.89$  17.54$  13.2$
|391>   Q  0.6645  7.54$  20.74$  13.54$
|392>   Q  0.6645  6.69$  19.32$  13.18$
|393>   Q  -1.3290  6.95$  20.19$  13.17$
|394>   Q  0.6645  2.68$  12.82$  6.61$
|395>   Q  0.6645  1.41$  12.67$  5.69$
|396>   Q  -1.3290  1.87$  12.69$  6.45$
|397>   Q  0.6645  2.99$  10.64$  17.88$
|398>   Q  0.6645  2.89$  9.41$  18.75$
|399>   Q  -1.3290  3.27$  10.03$  18.41$
|400>   Q  0.6645  4.95$  14.75$  16.6$
|401>   Q  0.6645  4.58$  15.11$  15.16$
|402>   Q  -1.3290  5.12$  14.89$  15.78$
|403>   Q  0.6645  9.08$  18.61$  9.39$
|404>   Q  0.6645  8.55$  18.6$  7.98$
|405>   Q  -1.3290  8.49$  18.81$  8.8$
|406>   Q  0.6645  12.02$  6.17$  5.21$
|407>   Q  0.6645  12.67$  6.23$  3.85$
|408>   Q  -1.3290  12.54$  5.92$  4.61$
|409>   Q  0.6645  6.39$  7.12$  3.39$
|410>   Q  0.6645  6.74$  5.69$  3.53$
|411>   Q  -1.3290  6.58$  6.39$  3.09$
|412>   Q  0.6645  5.04$  16.06$  10.94$
|413>   Q  0.6645  3.5$  16.22$  10.86$
|414>   Q  -1.3290  4.25$  15.87$  10.64$
|415>   Q  0.6645  17.53$  9.23$  4.78$
|416>   Q  0.6645  18.94$  8.84$  4.32$
|417>   Q  -1.3290  18.36$  9.17$  4.83$
|418>   Q  0.6645  8.9$  7.08$  0.73$
|419>   Q  0.6645  7.82$  6.41$  1.71$
|420>   Q  -1.3290  8.19$  6.63$  0.94$
|421>   Q  0.6645  14.93$  16.2$  13.29$
|422>   Q  0.6645  14.68$  15.6$  14.65$
|423>   Q  -1.3290  14.48$  16.08$  14.01$
|424>   Q  0.6645  8.88$  17.74$  16.86$
|425>   Q  0.6645  9.17$  18.96$  17.6$
|426>   Q  -1.3290  9.34$  18.39$  17.04$
|427>   Q  0.6645  6.8$  11.36$  16.8$
|428>   Q  0.6645  6.37$  9.93$  16.26$
|429>   Q  -1.3290  6.64$  10.74$  16.19$
|430>   Q  0.6645  12.64$  16.85$  16.76$
|431>   Q  0.6645  11.15$  16.9$  16.67$
|432>   Q  -1.3290  11.9$  16.59$  16.5$
|433>   Q  0.6645  12.35$  2.31$  9.17$
|434>   Q  0.6645  12.8$  2.09$  7.76$
|435>   Q  -1.3290  12.55$  1.86$  8.51$
|436>   Q  0.6645  5.73$  18.51$  15.28$
|437>   Q  0.6645  4.52$  19.41$  15.32$
|438>   Q  -1.3290  5.17$  18.99$  15.64$
|439>   Q  0.6645  12.83$  12.05$  1.32$
|440>   Q  0.6645  12.9$  10.71$  2.08$
|441>   Q  -1.3290  12.76$  11.21$  1.4$
|442>   Q  0.6645  13.09$  2.68$  4.58$
|443>   Q  0.6645  13.24$  1.25$  5.19$
|444>   Q  -1.3290  13.16$  2.11$  5.22$
|445>   Q  0.6645  16.6$  10.98$  17.02$
|446>   Q  0.6645  15.22$  11.35$  17.74$
|447>   Q  -1.3290  16.04$  11.1$  17.68$
|448>   Q  0.6645  17.07$  17.47$  16.96$
|449>   Q  0.6645  16.8$  16.14$  16.15$
|450>   Q  -1.3290  16.66$  16.96$  16.4$
|451>   Q  0.6645  19.04$  4.78$  3.91$
|452>   Q  0.6645  20.06$  4.92$  2.73$
|453>   Q  -1.3290  19.76$  4.65$  3.49$
|454>   Q  0.6645  2.18$  17.48$  12.79$
|455>   Q  0.6645  2.9$  18.17$  11.55$
|456>   Q  -1.3290  2.62$  17.5$  12.04$
|457>   Q  0.6645  3.7$  9.75$  8.59$
|458>   Q  0.6645  2.68$  8.74$  8.91$
|459>   Q  -1.3290  3.02$  9.31$  8.42$
|460>   Q  0.6645  14.05$  21.65$  13.04$
|461>   Q  0.6645  14.91$  21.76$  11.73$
|462>   Q  -1.3290  14.34$  21.44$  12.24$
|463>   Q  0.6645  16.07$  4.22$  9.9$
|464>   Q  0.6645  17.1$  4.09$  8.86$
|465>   Q  -1.3290  16.38$  3.91$  9.2$
|466>   Q  0.6645  8.07$  15.92$  7.59$
|467>   Q  0.6645  8.55$  15.31$  8.89$
|468>   Q  -1.3290  7.99$  15.5$  8.32$
|469>   Q  0.6645  9.36$  12.64$  16$
|470>   Q  0.6645  8.72$  11.19$  15.9$
|471>   Q  -1.3290  9.32$  11.78$  15.93$
|472>   Q  0.6645  10.99$  10.77$  0.88$
|473>   Q  0.6645  9.5$  10.72$  0.89$
|474>   Q  -1.3290  10.24$  10.76$  0.53$
|475>   Q  0.6645  9.08$  9.55$  3.22$
|476>   Q  0.6645  7.75$  10.25$  2.77$
|477>   Q  -1.3290  8.57$  10.11$  2.82$
|478>   Q  0.6645  18.49$  3.92$  15.31$
|479>   Q  0.6645  17.28$  3.4$  16.22$
|480>   Q  -1.3290  17.65$  3.69$  15.51$
|481>   Q  0.6645  10.94$  13.29$  19.56$
|482>   Q  0.6645  11.5$  14.35$  18.68$
|483>   Q  -1.3290  10.99$  14.05$  19.3$
|484>   Q  0.6645  1.26$  4.73$  11.97$
|485>   Q  0.6645  1.68$  5.54$  10.67$
|486>   Q  -1.3290  1.21$  5$  11.14$
|487>   Q  0.6645  3.69$  9.65$  5.14$
|488>   Q  0.6645  3.45$  8.75$  6.39$
|489>   Q  -1.3290  3.55$  8.92$  5.55$
|490>   Q  0.6645  5.22$  12.94$  18.66$
|491>   Q  0.6645  6$  11.53$  19.14$
|492>   Q  -1.3290  5.87$  12.34$  18.81$
|493>   Q  0.6645  6.65$  20.02$  11.05$
|494>   Q  0.6645  7.39$  19.85$  9.82$
|495>   Q  -1.3290  6.8$  20.23$  10.31$
|496>   Q  0.6645  21.03$  12.85$  9.86$
|497>   Q  0.6645  19.88$  13.6$  9.22$
|498>   Q  -1.3290  20.29$  13.24$  9.85$
|499>   Q  0.6645  4.1$  15.13$  19.17$
|500>   Q  0.6645  3.15$  14.23$  18.29$
|501>   Q  -1.3290  3.89$  14.56$  18.53$
|502>   Q  0.6645  11.9$  20.48$  13.3$
|503>   Q  0.6645  11.01$  20.84$  14.47$
|504>   Q  -1.3290  11.58$  21.01$  13.87$
|505>   Q  0.6645  11.05$  6.16$  0.48$
|506>   Q  0.6645  10.7$  7.56$  -0.32$
|507>   Q  -1.3290  10.83$  7.01$  0.36$
|508>   Q  0.6645  5.75$  9.14$  1.96$
|509>   Q  0.6645  4.85$  10.21$  2.76$
|510>   Q  -1.3290  5.57$  9.75$  2.55$
|511>   Q  0.6645  4.63$  6.78$  7.35$
|512>   Q  0.6645  6.1$  6.36$  7.08$
|513>   Q  -1.3290  5.47$  6.85$  7.38$
|514>   Q  0.6645  13.55$  15.06$  3.81$
|515>   Q  0.6645  12.99$  16.22$  4.46$
|516>   Q  -1.3290  13.61$  15.72$  4.27$
|517>   Q  0.6645  2.25$  14.38$  16.05$
|518>   Q  0.6645  1.65$  12.91$  16.32$
|519>   Q  -1.3290  1.75$  13.78$  16.43$
|520>   Q  0.6645  17.48$  13.59$  3.99$
|521>   Q  0.6645  18.27$  12.55$  4.89$
|522>   Q  -1.3290  17.62$  13.09$  4.65$
|523>   Q  0.6645  17.01$  4.94$  3.04$
|524>   Q  0.6645  16.72$  3.77$  3.96$
|525>   Q  -1.3290  17.05$  4.51$  3.79$
|526>   Q  0.6645  9.42$  4.33$  4.36$
|527>   Q  0.6645  9.24$  4.33$  2.86$
|528>   Q  -1.3290  9.46$  4.67$  3.57$
|529>   Q  0.6645  8.77$  9.14$  20.17$
|530>   Q  0.6645  10.1$  8.65$  19.34$
|531>   Q  -1.3290  9.49$  8.65$  19.97$
|532>   Q  0.6645  17.68$  12.96$  13.52$
|533>   Q  0.6645  18.74$  13.85$  14.19$
|534>   Q  -1.3290  17.96$  13.52$  14.09$
|535>   Q  0.6645  10.75$  4.9$  7.84$
|536>   Q  0.6645  9.61$  4.62$  8.82$
|537>   Q  -1.3290  10.03$  4.53$  8.09$
|538>   Q  0.6645  14.06$  15.31$  19.3$
|539>   Q  0.6645  14.31$  16.06$  20.6$
|540>   Q  -1.3290  14.4$  15.91$  19.8$
|541>   Q  0.6645  15.49$  17.27$  11.5$
|542>   Q  0.6645  16.92$  16.58$  11.7$
|543>   Q  -1.3290  16.16$  16.91$  11.94$
|544>   Q  0.6645  12.15$  4.47$  18.02$
|545>   Q  0.6645  12.77$  4.63$  16.63$
|546>   Q  -1.3290  12.64$  4.22$  17.38$
|547>   Q  0.6645  12.93$  20.44$  11.39$
|548>   Q  0.6645  11.98$  20.47$  10.31$
|549>   Q  -1.3290  12.26$  20.14$  11$
|550>   Q  0.6645  2.29$  7.35$  10.92$
|551>   Q  0.6645  3.63$  6.66$  10.46$
|552>   Q  -1.3290  2.84$  6.94$  10.37$
|553>   Q  0.6645  1.4$  8.58$  12.53$
|554>   Q  0.6645  0.75$  7.26$  12.71$
|555>   Q  -1.3290  1.11$  7.84$  12.26$
|556>   Q  0.6645  9.46$  11.84$  3.07$
|557>   Q  0.6645  9.38$  12.96$  4.12$
|558>   Q  -1.3290  9.63$  12.58$  3.4$
|559>   Q  0.6645  7.54$  2.24$  12.86$
|560>   Q  0.6645  8.54$  1.07$  12.49$
|561>   Q  -1.3290  7.99$  1.52$  12.98$
|562>   Q  0.6645  8.07$  16.37$  20.27$
|563>   Q  0.6645  6.58$  16.42$  19.97$
|564>   Q  -1.3290  7.4$  16.61$  19.82$
|565>   Q  0.6645  15.67$  21.23$  6.18$
|566>   Q  0.6645  16.15$  22.52$  6.64$
|567>   Q  -1.3290  16.14$  21.68$  6.64$
|568>   Q  0.6645  14.67$  21.1$  8.15$
|569>   Q  0.6645  13.37$  21.71$  8.42$
|570>   Q  -1.3290  13.82$  21.1$  8.15$
|571>   Q  0.6645  2.95$  4.82$  6.82$
|572>   Q  0.6645  3.13$  5.82$  5.68$
|573>   Q  -1.3290  2.89$  5.58$  6.43$
|574>   Q  0.6645  13.16$  12.63$  5.95$
|575>   Q  0.6645  12.38$  12.82$  7.17$
|576>   Q  -1.3290  12.46$  12.75$  6.33$
|577>   Q  0.6645  20.15$  9.31$  8.6$
|578>   Q  0.6645  19.65$  9.59$  9.99$
|579>   Q  -1.3290  19.69$  9.15$  9.28$
|580>   Q  0.6645  6.08$  14.76$  8.43$
|581>   Q  0.6645  4.65$  14.48$  8.97$
|582>   Q  -1.3290  5.3$  14.41$  8.46$
|583>   Q  0.6645  8.32$  7.85$  4.49$
|584>   Q  0.6645  9.29$  6.74$  3.94$
|585>   Q  -1.3290  9.06$  7.52$  4.21$
|586>   Q  0.6645  14.84$  2.64$  5.88$
|587>   Q  0.6645  15.94$  3.13$  6.96$
|588>   Q  -1.3290  15.63$  2.67$  6.28$
|589>   Q  0.6645  0.86$  10.77$  13.22$
|590>   Q  0.6645  1.46$  11.06$  11.87$
|591>   Q  -1.3290  0.86$  10.78$  12.39$
|592>   Q  0.6645  12.98$  9.26$  16.56$
|593>   Q  0.6645  14.33$  8.54$  16.88$
|594>   Q  -1.3290  13.5$  8.7$  16.94$
|595>   Q  0.6645  18.21$  10.55$  15.03$
|596>   Q  0.6645  17.34$  11.82$  15.26$
|597>   Q  -1.3290  17.57$  11.01$  15.37$
|598>   Q  0.6645  6.3$  8.34$  17.99$
|599>   Q  0.6645  4.91$  9.22$  17.81$
|600>   Q  -1.3290  5.63$  8.73$  17.58$
|601>   Q  0.6645  10.45$  16.25$  4.41$
|602>   Q  0.6645  9.81$  16.96$  3.15$
|603>   Q  -1.3290  10.43$  16.78$  3.73$
|604>   Q  0.6645  1.76$  11.92$  9.69$
|605>   Q  0.6645  1.35$  12.04$  8.25$
|606>   Q  -1.3290  1.2$  11.98$  9.06$
|607>   Q  0.6645  5.04$  12.09$  13.98$
|608>   Q  0.6645  4$  12.26$  12.93$
|609>   Q  -1.3290  4.26$  12.09$  13.7$
|610>   Q  0.6645  7.21$  12.94$  20.49$
|611>   Q  0.6645  8$  13.12$  21.84$
|612>   Q  -1.3290  7.38$  12.81$  21.32$
|613>   Q  0.6645  10.43$  20.44$  6.79$
|614>   Q  0.6645  9.79$  19.24$  6.18$
|615>   Q  -1.3290  10.12$  19.99$  6.13$
|616>   Q  0.6645  7.48$  10.89$  20.49$
|617>   Q  0.6645  6.58$  9.74$  20.52$
|618>   Q  -1.3290  7.19$  10.2$  20.19$
|619>   Q  0.6645  4.39$  7$  17.33$
|620>   Q  0.6645  4.78$  6.06$  16.38$
|621>   Q  -1.3290  4.42$  6.26$  17.05$
|622>   Q  0.6645  6.62$  5.3$  13.66$
|623>   Q  0.6645  6.58$  5.28$  15.17$
|624>   Q  -1.3290  6.41$  5.58$  14.44$
|625>   Q  0.6645  10.23$  17.22$  20.76$
|626>   Q  0.6645  10.06$  15.67$  20.58$
|627>   Q  -1.3290  9.93$  16.45$  20.92$
|628>   Q  0.6645  3.62$  2.37$  10.51$
|629>   Q  0.6645  3.98$  3.22$  11.83$
|630>   Q  -1.3290  4.08$  2.9$  11.01$
|631>   Q  0.6645  12.73$  14.92$  17.07$
|632>   Q  0.6645  13.32$  13.55$  17.53$
|633>   Q  -1.3290  13.13$  14.36$  17.61$
|634>   Q  0.6645  9.9$  16.83$  7.11$
|635>   Q  0.6645  9.02$  16.93$  5.8$
|636>   Q  -1.3290  9.33$  17.18$  6.57$
|637>   Q  0.6645  20.69$  5.41$  14.5$
|638>   Q  0.6645  19.97$  4.3$  13.66$
|639>   Q  -1.3290  20.06$  4.85$  14.29$
|640>   Q  0.6645  10.71$  5.35$  19.93$
|641>   Q  0.6645  11.89$  6.34$  19.56$
|642>   Q  -1.3290  11.3$  5.74$  19.39$
|643>   Q  0.6645  13.21$  11.37$  16.64$
|644>   Q  0.6645  12.8$  11.56$  18.19$
|645>   Q  -1.3290  13.24$  11.71$  17.45$
|646>   Q  0.6645  9.87$  15.03$  0.95$
|647>   Q  0.6645  9.62$  13.63$  1.7$
|648>   Q  -1.3290  9.44$  14.32$  1.13$
|649>   Q  0.6645  13.18$  6.8$  16.1$
|650>   Q  0.6645  12.41$  6.19$  14.98$
|651>   Q  -1.3290  13.01$  6.22$  15.52$
|652>   Q  0.6645  12.61$  2.79$  11.7$
|653>   Q  0.6645  11.47$  3.39$  10.93$
|654>   Q  -1.3290  12.01$  2.79$  11.13$
|655>   Q  0.6645  20.03$  4.88$  9.37$
|656>   Q  0.6645  20.26$  3.54$  8.58$
|657>   Q  -1.3290  19.89$  4.07$  9.13$
|658> *
|659> 
|660>                          ****END OF INPUT****
================================================================================

                     *******************************
                     * Energy+Gradient Calculation *
                     *******************************

---------------------------------
CARTESIAN COORDINATES (ANGSTROEM)
---------------------------------
  C      9.230000   11.610000   11.990000
  H      9.960000   11.700000   12.790000
  H      8.290000   11.230000   12.370000
  C      9.880000   10.720000   10.960000
  H      9.250000    9.890000   10.890000
  H      9.990000   11.240000    9.990000
  C     11.240000   10.060000   11.120000
  H     11.240000    9.450000   12.040000
  H     12.010000   10.760000   11.360000
  C     11.750000    9.210000   10.010000
  H     11.490000    9.620000    8.980000
  H     11.350000    8.210000   10.130000
  O     13.120000    9.100000   10.140000
  H     13.480000    8.420000    9.500000
  O      8.940000   12.910000   11.470000
  H      8.600000   13.560000   12.120000
  O     15.460000    9.790000   11.160000
  H     15.950000    8.920000   10.960000
  H     14.600000    9.690000   10.780000
  O     13.220000   12.790000   14.130000
  H     12.690000   13.570000   13.990000
  H     13.150000   12.280000   13.290000
  O     16.040000    9.850000    7.930000
  H     15.660000   10.050000    8.800000
  H     16.360000    8.960000    7.980000
  O      8.840000   15.190000   13.390000
  H      8.850000   16.130000   13.290000
  H      8.310000   15.010000   14.210000
  O     13.190000   12.750000   11.410000
  H     12.660000   13.610000   11.450000
  H     14.150000   13.010000   11.300000
  O     15.160000   12.190000    6.070000
  H     15.240000   11.780000    6.920000
  H     16.020000   12.240000    5.690000
  O     11.550000   14.860000   14.260000
  H     11.880000   15.470000   14.900000
  H     10.620000   15.000000   14.130000
  O     15.400000    9.150000    5.110000
  H     15.530000    9.350000    6.070000
  H     15.420000    8.170000    5.120000
  O      9.550000   18.010000   13.140000
  H      9.660000   18.240000   12.190000
  H      9.470000   18.820000   13.680000
  O     12.080000   15.200000   11.460000
  H     12.860000   15.760000   11.240000
  H     12.210000   15.110000   12.430000
  O     17.060000    7.730000   10.510000
  H     18.000000    8.030000   10.350000
  H     17.120000    6.850000   10.770000
  O      6.880000   13.060000   14.530000
  H      6.220000   13.580000   15.070000
  H      6.790000   12.150000   14.880000
  O     12.200000   12.790000    8.870000
  H     12.480000   12.750000    9.790000
  H     11.540000   13.490000    8.810000
  O     18.020000   11.930000    8.500000
  H     18.330000   12.040000    9.450000
  H     17.540000   11.140000    8.360000
  O     10.150000    8.410000    7.130000
  H      9.770000    7.970000    6.340000
  H      9.390000    8.540000    7.780000
  O     11.800000    6.370000    7.610000
  H     11.340000    7.170000    7.330000
  H     12.750000    6.510000    7.620000
  O     15.290000   13.900000   15.490000
  H     16.120000   13.980000   14.950000
  H     14.860000   13.100000   15.160000
  O     12.220000   10.230000   15.110000
  H     11.920000   11.170000   14.970000
  H     12.950000   10.100000   14.430000
  O     10.680000    7.880000   14.330000
  H     10.870000    8.730000   14.740000
  H     10.410000    7.340000   15.070000
  O      7.070000    8.800000   11.570000
  H      6.320000    8.180000   11.590000
  H      7.750000    8.330000   12.080000
  O      9.940000   14.630000    9.810000
  H      9.560000   14.000000   10.450000
  H     10.800000   14.960000   10.220000
  O      6.990000   16.250000   10.980000
  H      7.480000   16.360000   10.160000
  H      7.170000   15.340000   11.290000
  O      6.100000   14.040000   12.130000
  H      6.460000   13.720000   12.970000
  H      6.200000   13.270000   11.540000
  O      5.950000   11.370000   10.880000
  H      6.360000   10.690000   11.420000
  H      5.970000   11.020000    9.990000
  O     18.260000    7.460000    7.340000
  H     18.910000    7.780000    7.980000
  H     18.520000    7.940000    6.540000
  O     13.640000    6.720000   12.400000
  H     13.340000    7.630000   12.680000
  H     14.380000    7.010000   11.890000
  O     11.120000   10.480000    5.570000
  H     10.870000    9.930000    6.310000
  H     11.380000   11.300000    5.940000
  O     15.610000   14.000000   11.120000
  H     16.200000   14.740000   11.400000
  H     15.720000   14.050000   10.120000
  O     14.430000    9.430000   13.560000
  H     14.990000    8.850000   14.130000
  H     14.970000    9.480000   12.740000
  O     17.400000   11.950000   11.960000
  H     16.810000   11.170000   11.860000
  H     16.850000   12.640000   11.630000
  O     14.450000    6.760000    8.010000
  H     14.840000    6.650000    7.090000
  H     15.090000    6.460000    8.670000
  O      8.010000    7.930000    8.890000
  H      7.610000    8.450000    9.610000
  H      7.260000    7.520000    8.510000
  Q      8.120000    7.030000   19.290000
  Q      6.970000    6.200000   18.640000
  Q      7.510000    6.830000   18.690000
  Q     14.610000    5.890000    4.990000
  Q     16.080000    5.670000    5.090000
  Q     15.400000    6.070000    5.240000
  Q      7.740000    9.920000    6.180000
  Q      8.640000   11.030000    6.000000
  Q      8.130000   10.610000    6.440000
  Q     11.600000   17.610000   13.680000
  Q     13.140000   17.540000   13.780000
  Q     12.410000   17.910000   13.610000
  Q     14.310000    6.710000   -0.200000
  Q     14.110000    7.790000    0.780000
  Q     14.550000    7.340000    0.270000
  Q      6.700000    2.270000    8.560000
  Q      5.450000    3.050000    9.080000
  Q      6.170000    2.910000    8.640000
  Q     13.970000   17.980000    9.820000
  Q     13.640000   18.240000   11.330000
  Q     14.020000   17.850000   10.670000
  Q      6.840000   21.940000   16.460000
  Q      5.750000   20.740000   16.380000
  Q      6.190000   21.430000   16.690000
  Q      9.240000   19.570000   15.610000
  Q      8.820000   20.980000   15.130000
  Q      9.120000   20.190000   15.050000
  Q     19.380000   16.730000   10.890000
  Q     18.990000   15.720000   11.970000
  Q     18.870000   16.140000   11.260000
  Q      1.250000    6.690000    7.100000
  Q     -0.220000    6.640000    7.600000
  Q      0.420000    6.950000    7.140000
  Q     21.630000    6.410000   10.320000
  Q     20.780000    7.540000    9.830000
  Q     21.020000    6.760000    9.870000
  Q     15.030000   15.890000    6.030000
  Q     15.810000   16.000000    7.380000
  Q     15.450000   16.270000    6.650000
  Q      8.450000    6.340000    9.850000
  Q      9.370000    5.540000   10.890000
  Q      8.700000    5.670000   10.340000
  Q      3.760000    5.330000   14.030000
  Q      3.290000    6.780000   13.880000
  Q      3.230000    5.990000   14.090000
  Q     18.380000   14.260000    6.310000
  Q     19.010000   15.620000    6.500000
  Q     18.800000   14.860000    6.750000
  Q     16.880000    8.490000    2.040000
  Q     16.000000    9.240000    3.070000
  Q     16.520000    9.150000    2.420000
  Q     16.990000   14.770000   18.650000
  Q     16.170000   14.150000   17.510000
  Q     16.850000   14.300000   17.970000
  Q      6.410000    4.730000    5.590000
  Q      6.270000    3.370000    4.880000
  Q      6.170000    4.190000    4.970000
  Q      8.610000    1.080000   10.050000
  Q      7.400000    0.220000    9.860000
  Q      7.980000    0.780000    9.620000
  Q      7.540000    4.240000   11.450000
  Q      6.230000    3.360000   11.690000
  Q      6.890000    3.870000   11.900000
  Q     19.490000   10.050000   13.160000
  Q     19.230000    8.680000   13.940000
  Q     19.470000    9.540000   13.840000
  Q     11.360000   14.110000    5.700000
  Q      9.960000   14.500000    5.640000
  Q     10.770000   14.660000    5.620000
  Q      9.820000   14.240000   17.920000
  Q      9.000000   14.970000   16.870000
  Q      9.570000   14.430000   17.150000
  Q      7.780000   16.590000   17.480000
  Q      6.850000   16.230000   16.370000
  Q      7.590000   16.390000   16.700000
  Q     16.440000    7.480000   15.980000
  Q     16.590000    8.920000   15.460000
  Q     16.180000    8.270000   15.710000
  Q     10.620000   17.030000   10.010000
  Q     11.240000   18.200000   10.620000
  Q     10.590000   17.780000   10.350000
  Q     16.670000    7.280000   17.950000
  Q     16.370000    5.720000   17.820000
  Q     16.750000    6.440000   17.620000
  Q     12.950000    8.400000   19.110000
  Q     12.530000    8.700000   20.500000
  Q     12.600000    8.210000   19.840000
  Q     11.770000    4.120000    3.490000
  Q     11.610000    2.700000    2.940000
  Q     12.050000    3.400000    3.160000
  Q     13.330000   10.900000   20.390000
  Q     13.640000   10.520000   21.840000
  Q     13.770000   10.500000   21.020000
  Q     17.660000    6.770000   12.880000
  Q     18.790000    6.550000   13.830000
  Q     18.270000    7.010000   13.430000
  Q      6.540000   10.430000    7.970000
  Q      5.390000   11.280000    7.430000
  Q      5.760000   10.760000    7.980000
  Q     17.550000    0.870000   11.550000
  Q     17.720000    0.440000   12.990000
  Q     17.980000    0.710000   12.260000
  Q      6.570000   18.300000   19.030000
  Q      5.780000   18.800000   17.640000
  Q      6.160000   18.850000   18.450000
  Q     15.980000    9.320000   19.000000
  Q     15.380000    8.410000   20.010000
  Q     15.850000    8.590000   19.330000
  Q     17.590000   15.670000    9.500000
  Q     17.490000   14.870000    8.210000
  Q     17.190000   15.240000    8.890000
  Q      2.840000   15.170000   13.830000
  Q      2.160000   16.300000   14.700000
  Q      2.710000   15.680000   14.500000
  Q     10.570000    0.100000   11.690000
  Q     10.660000    1.510000   11.360000
  Q     10.230000    0.810000   11.420000
  Q     11.150000   11.260000   20.520000
  Q     11.190000   10.800000   19.110000
  Q     11.420000   11.310000   19.740000
  Q      0.560000   10.080000    8.330000
  Q      0.300000    8.740000    7.500000
  Q      0.140000    9.550000    7.780000
  Q     12.270000   16.940000    7.780000
  Q     11.900000   15.580000    7.200000
  Q     11.830000   16.180000    7.760000
  Q      7.930000   13.240000    6.860000
  Q      7.460000   13.740000    5.400000
  Q      8.020000   13.530000    6.010000
  Q     13.670000   19.020000    7.720000
  Q     14.370000   17.680000    7.380000
  Q     13.800000   18.180000    7.760000
  Q     16.380000    4.960000   12.470000
  Q     17.450000    4.660000   11.370000
  Q     16.770000    5.030000   11.730000
  Q     11.240000   22.290000    8.580000
  Q      9.870000   21.570000    8.840000
  Q     10.670000   21.640000    8.550000
  Q      6.710000   16.120000    4.970000
  Q      7.260000   15.890000    3.620000
  Q      7.340000   15.970000    4.460000
  Q      5.310000   14.340000    2.940000
  Q      3.850000   14.530000    3.580000
  Q      4.590000   14.140000    3.420000
  Q     16.100000    4.570000   14.530000
  Q     14.790000    5.420000   14.350000
  Q     15.390000    4.860000   14.160000
  Q      0.210000   16.190000   11.020000
  Q     -0.410000   14.920000   10.950000
  Q      0.130000   15.390000   11.250000
  Q      4.090000   21.560000   11.780000
  Q      5.160000   21.190000   12.830000
  Q      4.430000   21.470000   12.560000
  Q      5.030000   12.940000    5.160000
  Q      4.890000   13.250000    6.650000
  Q      4.840000   12.750000    5.990000
  Q     12.170000   10.250000    4.140000
  Q     13.650000    9.880000    4.110000
  Q     12.880000    9.940000    3.780000
  Q     10.900000    3.070000   16.980000
  Q      9.470000    3.070000   17.550000
  Q     10.070000    2.980000   16.950000
  Q      4.740000   17.140000    6.190000
  Q      5.190000   16.210000    7.310000
  Q      5.320000   16.770000    6.730000
  Q     12.760000   13.980000    2.110000
  Q     11.900000   13.490000    3.280000
  Q     12.610000   13.650000    2.870000
  Q     19.270000    3.640000   11.020000
  Q     18.670000    2.620000   12.150000
  Q     18.970000    3.380000   11.820000
  Q     -0.230000    9.740000   16.200000
  Q     -0.610000    9.540000   14.780000
  Q     -0.060000    9.580000   15.400000
  Q     14.260000   17.270000   18.180000
  Q     14.660000   17.830000   16.790000
  Q     14.150000   17.700000   17.450000
  Q      5.420000   18.640000    7.700000
  Q      5.710000   19.810000    8.710000
  Q      5.280000   19.380000    8.120000
  Q      3.100000   12.520000   11.140000
  Q      4.150000   11.490000   10.670000
  Q      3.400000   11.780000   10.880000
  Q     10.640000    8.770000   17.140000
  Q     10.400000   10.250000   16.950000
  Q     10.660000    9.570000   17.380000
  Q     15.940000    3.310000   18.390000
  Q     14.560000    3.930000   17.830000
  Q     15.340000    3.930000   18.210000
  Q      3.420000   14.490000   11.640000
  Q      1.860000   14.330000   11.630000
  Q      2.680000   14.140000   11.840000
  Q      7.110000    4.320000    7.570000
  Q      8.320000    5.130000    7.210000
  Q      7.530000    4.960000    7.230000
  Q     10.270000    6.480000   17.440000
  Q      9.010000    7.350000   17.110000
  Q      9.800000    7.080000   17.010000
  Q     19.340000   11.990000    6.890000
  Q     19.260000   10.870000    5.680000
  Q     19.510000   11.620000    6.110000
  Q     13.180000   19.630000   14.890000
  Q     13.510000   19.430000   16.300000
  Q     13.490000   19.870000   15.610000
  Q     11.870000    3.850000   14.320000
  Q     10.350000    3.770000   14.750000
  Q     11.040000    4.110000   14.380000
  Q     11.900000    7.500000    1.810000
  Q     12.680000    8.230000    2.810000
  Q     12.510000    7.590000    2.320000
  Q      6.340000    3.200000   16.590000
  Q      7.420000    3.780000   17.510000
  Q      6.890000    3.790000   16.840000
  Q      8.250000    2.560000    6.010000
  Q      9.740000    2.880000    6.400000
  Q      9.070000    2.760000    5.880000
  Q      6.130000    9.130000    4.200000
  Q      5.710000    8.350000    5.570000
  Q      6.220000    8.600000    4.890000
  Q     13.660000    2.140000   14.620000
  Q     14.160000    3.450000   14.100000
  Q     13.590000    2.810000   14.170000
  Q      2.230000   18.470000    9.220000
  Q      3.580000   19.200000    9.120000
  Q      2.860000   18.980000    9.500000
  Q     16.180000    1.770000    9.830000
  Q     16.560000    0.350000    9.380000
  Q     16.460000    0.990000    9.940000
  Q      9.510000    7.040000   13.140000
  Q      8.180000    6.640000   13.770000
  Q      8.690000    6.900000   13.160000
  Q      1.650000   10.660000   15.660000
  Q      2.970000   11.570000   15.360000
  Q      2.300000   11.230000   15.850000
  Q     14.080000    3.880000    1.930000
  Q     15.360000    4.740000    1.700000
  Q     14.910000    4.060000    1.950000
  Q     11.920000    5.610000   11.750000
  Q     10.870000    4.860000   12.480000
  Q     11.220000    5.170000   11.800000
  Q      3.880000    9.730000   13.880000
  Q      3.330000    8.950000   15.010000
  Q      3.430000    9.140000   14.200000
  Q     19.430000   11.530000   11.510000
  Q     20.820000   10.710000   11.480000
  Q     19.960000   10.830000   11.440000
  Q      6.040000    5.730000   10.960000
  Q      5.830000    6.620000    9.700000
  Q      5.740000    6.410000   10.520000
  Q      6.390000   16.970000   12.800000
  Q      5.040000   17.560000   13.270000
  Q      5.890000   17.540000   13.200000
  Q      7.540000   20.740000   13.540000
  Q      6.690000   19.320000   13.180000
  Q      6.950000   20.190000   13.170000
  Q      2.680000   12.820000    6.610000
  Q      1.410000   12.670000    5.690000
  Q      1.870000   12.690000    6.450000
  Q      2.990000   10.640000   17.880000
  Q      2.890000    9.410000   18.750000
  Q      3.270000   10.030000   18.410000
  Q      4.950000   14.750000   16.600000
  Q      4.580000   15.110000   15.160000
  Q      5.120000   14.890000   15.780000
  Q      9.080000   18.610000    9.390000
  Q      8.550000   18.600000    7.980000
  Q      8.490000   18.810000    8.800000
  Q     12.020000    6.170000    5.210000
  Q     12.670000    6.230000    3.850000
  Q     12.540000    5.920000    4.610000
  Q      6.390000    7.120000    3.390000
  Q      6.740000    5.690000    3.530000
  Q      6.580000    6.390000    3.090000
  Q      5.040000   16.060000   10.940000
  Q      3.500000   16.220000   10.860000
  Q      4.250000   15.870000   10.640000
  Q     17.530000    9.230000    4.780000
  Q     18.940000    8.840000    4.320000
  Q     18.360000    9.170000    4.830000
  Q      8.900000    7.080000    0.730000
  Q      7.820000    6.410000    1.710000
  Q      8.190000    6.630000    0.940000
  Q     14.930000   16.200000   13.290000
  Q     14.680000   15.600000   14.650000
  Q     14.480000   16.080000   14.010000
  Q      8.880000   17.740000   16.860000
  Q      9.170000   18.960000   17.600000
  Q      9.340000   18.390000   17.040000
  Q      6.800000   11.360000   16.800000
  Q      6.370000    9.930000   16.260000
  Q      6.640000   10.740000   16.190000
  Q     12.640000   16.850000   16.760000
  Q     11.150000   16.900000   16.670000
  Q     11.900000   16.590000   16.500000
  Q     12.350000    2.310000    9.170000
  Q     12.800000    2.090000    7.760000
  Q     12.550000    1.860000    8.510000
  Q      5.730000   18.510000   15.280000
  Q      4.520000   19.410000   15.320000
  Q      5.170000   18.990000   15.640000
  Q     12.830000   12.050000    1.320000
  Q     12.900000   10.710000    2.080000
  Q     12.760000   11.210000    1.400000
  Q     13.090000    2.680000    4.580000
  Q     13.240000    1.250000    5.190000
  Q     13.160000    2.110000    5.220000
  Q     16.600000   10.980000   17.020000
  Q     15.220000   11.350000   17.740000
  Q     16.040000   11.100000   17.680000
  Q     17.070000   17.470000   16.960000
  Q     16.800000   16.140000   16.150000
  Q     16.660000   16.960000   16.400000
  Q     19.040000    4.780000    3.910000
  Q     20.060000    4.920000    2.730000
  Q     19.760000    4.650000    3.490000
  Q      2.180000   17.480000   12.790000
  Q      2.900000   18.170000   11.550000
  Q      2.620000   17.500000   12.040000
  Q      3.700000    9.750000    8.590000
  Q      2.680000    8.740000    8.910000
  Q      3.020000    9.310000    8.420000
  Q     14.050000   21.650000   13.040000
  Q     14.910000   21.760000   11.730000
  Q     14.340000   21.440000   12.240000
  Q     16.070000    4.220000    9.900000
  Q     17.100000    4.090000    8.860000
  Q     16.380000    3.910000    9.200000
  Q      8.070000   15.920000    7.590000
  Q      8.550000   15.310000    8.890000
  Q      7.990000   15.500000    8.320000
  Q      9.360000   12.640000   16.000000
  Q      8.720000   11.190000   15.900000
  Q      9.320000   11.780000   15.930000
  Q     10.990000   10.770000    0.880000
  Q      9.500000   10.720000    0.890000
  Q     10.240000   10.760000    0.530000
  Q      9.080000    9.550000    3.220000
  Q      7.750000   10.250000    2.770000
  Q      8.570000   10.110000    2.820000
  Q     18.490000    3.920000   15.310000
  Q     17.280000    3.400000   16.220000
  Q     17.650000    3.690000   15.510000
  Q     10.940000   13.290000   19.560000
  Q     11.500000   14.350000   18.680000
  Q     10.990000   14.050000   19.300000
  Q      1.260000    4.730000   11.970000
  Q      1.680000    5.540000   10.670000
  Q      1.210000    5.000000   11.140000
  Q      3.690000    9.650000    5.140000
  Q      3.450000    8.750000    6.390000
  Q      3.550000    8.920000    5.550000
  Q      5.220000   12.940000   18.660000
  Q      6.000000   11.530000   19.140000
  Q      5.870000   12.340000   18.810000
  Q      6.650000   20.020000   11.050000
  Q      7.390000   19.850000    9.820000
  Q      6.800000   20.230000   10.310000
  Q     21.030000   12.850000    9.860000
  Q     19.880000   13.600000    9.220000
  Q     20.290000   13.240000    9.850000
  Q      4.100000   15.130000   19.170000
  Q      3.150000   14.230000   18.290000
  Q      3.890000   14.560000   18.530000
  Q     11.900000   20.480000   13.300000
  Q     11.010000   20.840000   14.470000
  Q     11.580000   21.010000   13.870000
  Q     11.050000    6.160000    0.480000
  Q     10.700000    7.560000   -0.320000
  Q     10.830000    7.010000    0.360000
  Q      5.750000    9.140000    1.960000
  Q      4.850000   10.210000    2.760000
  Q      5.570000    9.750000    2.550000
  Q      4.630000    6.780000    7.350000
  Q      6.100000    6.360000    7.080000
  Q      5.470000    6.850000    7.380000
  Q     13.550000   15.060000    3.810000
  Q     12.990000   16.220000    4.460000
  Q     13.610000   15.720000    4.270000
  Q      2.250000   14.380000   16.050000
  Q      1.650000   12.910000   16.320000
  Q      1.750000   13.780000   16.430000
  Q     17.480000   13.590000    3.990000
  Q     18.270000   12.550000    4.890000
  Q     17.620000   13.090000    4.650000
  Q     17.010000    4.940000    3.040000
  Q     16.720000    3.770000    3.960000
  Q     17.050000    4.510000    3.790000
  Q      9.420000    4.330000    4.360000
  Q      9.240000    4.330000    2.860000
  Q      9.460000    4.670000    3.570000
  Q      8.770000    9.140000   20.170000
  Q     10.100000    8.650000   19.340000
  Q      9.490000    8.650000   19.970000
  Q     17.680000   12.960000   13.520000
  Q     18.740000   13.850000   14.190000
  Q     17.960000   13.520000   14.090000
  Q     10.750000    4.900000    7.840000
  Q      9.610000    4.620000    8.820000
  Q     10.030000    4.530000    8.090000
  Q     14.060000   15.310000   19.300000
  Q     14.310000   16.060000   20.600000
  Q     14.400000   15.910000   19.800000
  Q     15.490000   17.270000   11.500000
  Q     16.920000   16.580000   11.700000
  Q     16.160000   16.910000   11.940000
  Q     12.150000    4.470000   18.020000
  Q     12.770000    4.630000   16.630000
  Q     12.640000    4.220000   17.380000
  Q     12.930000   20.440000   11.390000
  Q     11.980000   20.470000   10.310000
  Q     12.260000   20.140000   11.000000
  Q      2.290000    7.350000   10.920000
  Q      3.630000    6.660000   10.460000
  Q      2.840000    6.940000   10.370000
  Q      1.400000    8.580000   12.530000
  Q      0.750000    7.260000   12.710000
  Q      1.110000    7.840000   12.260000
  Q      9.460000   11.840000    3.070000
  Q      9.380000   12.960000    4.120000
  Q      9.630000   12.580000    3.400000
  Q      7.540000    2.240000   12.860000
  Q      8.540000    1.070000   12.490000
  Q      7.990000    1.520000   12.980000
  Q      8.070000   16.370000   20.270000
  Q      6.580000   16.420000   19.970000
  Q      7.400000   16.610000   19.820000
  Q     15.670000   21.230000    6.180000
  Q     16.150000   22.520000    6.640000
  Q     16.140000   21.680000    6.640000
  Q     14.670000   21.100000    8.150000
  Q     13.370000   21.710000    8.420000
  Q     13.820000   21.100000    8.150000
  Q      2.950000    4.820000    6.820000
  Q      3.130000    5.820000    5.680000
  Q      2.890000    5.580000    6.430000
  Q     13.160000   12.630000    5.950000
  Q     12.380000   12.820000    7.170000
  Q     12.460000   12.750000    6.330000
  Q     20.150000    9.310000    8.600000
  Q     19.650000    9.590000    9.990000
  Q     19.690000    9.150000    9.280000
  Q      6.080000   14.760000    8.430000
  Q      4.650000   14.480000    8.970000
  Q      5.300000   14.410000    8.460000
  Q      8.320000    7.850000    4.490000
  Q      9.290000    6.740000    3.940000
  Q      9.060000    7.520000    4.210000
  Q     14.840000    2.640000    5.880000
  Q     15.940000    3.130000    6.960000
  Q     15.630000    2.670000    6.280000
  Q      0.860000   10.770000   13.220000
  Q      1.460000   11.060000   11.870000
  Q      0.860000   10.780000   12.390000
  Q     12.980000    9.260000   16.560000
  Q     14.330000    8.540000   16.880000
  Q     13.500000    8.700000   16.940000
  Q     18.210000   10.550000   15.030000
  Q     17.340000   11.820000   15.260000
  Q     17.570000   11.010000   15.370000
  Q      6.300000    8.340000   17.990000
  Q      4.910000    9.220000   17.810000
  Q      5.630000    8.730000   17.580000
  Q     10.450000   16.250000    4.410000
  Q      9.810000   16.960000    3.150000
  Q     10.430000   16.780000    3.730000
  Q      1.760000   11.920000    9.690000
  Q      1.350000   12.040000    8.250000
  Q      1.200000   11.980000    9.060000
  Q      5.040000   12.090000   13.980000
  Q      4.000000   12.260000   12.930000
  Q      4.260000   12.090000   13.700000
  Q      7.210000   12.940000   20.490000
  Q      8.000000   13.120000   21.840000
  Q      7.380000   12.810000   21.320000
  Q     10.430000   20.440000    6.790000
  Q      9.790000   19.240000    6.180000
  Q     10.120000   19.990000    6.130000
  Q      7.480000   10.890000   20.490000
  Q      6.580000    9.740000   20.520000
  Q      7.190000   10.200000   20.190000
  Q      4.390000    7.000000   17.330000
  Q      4.780000    6.060000   16.380000
  Q      4.420000    6.260000   17.050000
  Q      6.620000    5.300000   13.660000
  Q      6.580000    5.280000   15.170000
  Q      6.410000    5.580000   14.440000
  Q     10.230000   17.220000   20.760000
  Q     10.060000   15.670000   20.580000
  Q      9.930000   16.450000   20.920000
  Q      3.620000    2.370000   10.510000
  Q      3.980000    3.220000   11.830000
  Q      4.080000    2.900000   11.010000
  Q     12.730000   14.920000   17.070000
  Q     13.320000   13.550000   17.530000
  Q     13.130000   14.360000   17.610000
  Q      9.900000   16.830000    7.110000
  Q      9.020000   16.930000    5.800000
  Q      9.330000   17.180000    6.570000
  Q     20.690000    5.410000   14.500000
  Q     19.970000    4.300000   13.660000
  Q     20.060000    4.850000   14.290000
  Q     10.710000    5.350000   19.930000
  Q     11.890000    6.340000   19.560000
  Q     11.300000    5.740000   19.390000
  Q     13.210000   11.370000   16.640000
  Q     12.800000   11.560000   18.190000
  Q     13.240000   11.710000   17.450000
  Q      9.870000   15.030000    0.950000
  Q      9.620000   13.630000    1.700000
  Q      9.440000   14.320000    1.130000
  Q     13.180000    6.800000   16.100000
  Q     12.410000    6.190000   14.980000
  Q     13.010000    6.220000   15.520000
  Q     12.610000    2.790000   11.700000
  Q     11.470000    3.390000   10.930000
  Q     12.010000    2.790000   11.130000
  Q     20.030000    4.880000    9.370000
  Q     20.260000    3.540000    8.580000
  Q     19.890000    4.070000    9.130000

----------------------------
CARTESIAN COORDINATES (A.U.)
----------------------------
  NO LB      ZA    FRAG     MASS         X           Y           Z
   0 C     6.0000    0    12.011   17.442172   21.939720   22.657816
   1 H     1.0000    0     1.008   18.821672   22.109796   24.169597
   2 H     1.0000    0     1.008   15.665830   21.221624   23.375912
   3 C     6.0000    0    12.011   18.670494   20.257864   20.711398
   4 H     1.0000    0     1.008   17.479967   18.689391   20.579118
   5 H     1.0000    0     1.008   18.878364   21.240522   18.878364
   6 C     6.0000    0    12.011   21.240522   19.010645   21.013755
   7 H     1.0000    0     1.008   21.240522   17.857912   22.752303
   8 H     1.0000    0     1.008   22.695611   20.333453   21.467289
   9 C     6.0000    0    12.011   22.204282   17.404378   18.916159
  10 H     1.0000    0     1.008   21.712953   18.179165   16.969741
  11 H     1.0000    0     1.008   21.448392   15.514652   19.142926
  12 O     8.0000    0    15.999   24.793207   17.196508   19.161823
  13 H     1.0000    0     1.008   25.473508   15.911494   17.952398
  14 O     8.0000    0    15.999   16.894152   24.396364   21.675159
  15 H     1.0000    0     1.008   16.251645   25.624686   22.903481
  16 O     8.0000    0    15.999   29.215166   18.500419   21.089344
  17 H     1.0000    0     1.008   30.141132   16.856357   20.711398
  18 H     1.0000    0     1.008   27.590002   18.311446   20.371248
  19 O     8.0000    0    15.999   24.982179   24.169597   26.701830
  20 H     1.0000    0     1.008   23.980625   25.643584   26.437269
  21 H     1.0000    0     1.008   24.849899   23.205837   25.114460
  22 O     8.0000    0    15.999   30.311207   18.613802   14.985528
  23 H     1.0000    0     1.008   29.593111   18.991748   16.629590
  24 H     1.0000    0     1.008   30.915920   16.931946   15.080015
  25 O     8.0000    0    15.999   16.705179   28.704940   25.303433
  26 H     1.0000    0     1.008   16.724076   30.481283   25.114460
  27 H     1.0000    0     1.008   15.703624   28.364789   26.853008
  28 O     8.0000    0    15.999   24.925488   24.094008   21.561775
  29 H     1.0000    0     1.008   23.923933   25.719173   21.637364
  30 H     1.0000    0     1.008   26.739625   24.585337   21.353905
  31 O     8.0000    0    15.999   28.648248   23.035762   11.470638
  32 H     1.0000    0     1.008   28.799426   22.260974   13.076905
  33 H     1.0000    0     1.008   30.273413   23.130248   10.752542
  34 O     8.0000    0    15.999   21.826337   28.081330   26.947495
  35 H     1.0000    0     1.008   22.449946   29.234063   28.156919
  36 H     1.0000    0     1.008   20.068892   28.345892   26.701830
  37 O     8.0000    0    15.999   29.101782   17.290994    9.656501
  38 H     1.0000    0     1.008   29.347447   17.668939   11.470638
  39 H     1.0000    0     1.008   29.139577   15.439063    9.675398
  40 O     8.0000    0    15.999   18.046885   34.033968   24.831001
  41 H     1.0000    0     1.008   18.254754   34.468605   23.035762
  42 H     1.0000    0     1.008   17.895706   35.564646   25.851454
  43 O     8.0000    0    15.999   22.827892   28.723837   21.656261
  44 H     1.0000    0     1.008   24.301878   29.782084   21.240522
  45 H     1.0000    0     1.008   23.073556   28.553762   23.489296
  46 O     8.0000    0    15.999   32.238728   14.607583   19.861022
  47 H     1.0000    0     1.008   34.015070   15.174501   19.558665
  48 H     1.0000    0     1.008   32.352111   12.944624   20.352350
  49 O     8.0000    0    15.999   13.001316   24.679823   27.457721
  50 H     1.0000    0     1.008   11.754097   25.662481   28.478173
  51 H     1.0000    0     1.008   12.831240   22.960173   28.119125
  52 O     8.0000    0    15.999   23.054659   24.169597   16.761871
  53 H     1.0000    0     1.008   23.583782   24.094008   18.500419
  54 H     1.0000    0     1.008   21.807440   25.492406   16.648487
  55 O     8.0000    0    15.999   34.052865   22.544433   16.062672
  56 H     1.0000    0     1.008   34.638680   22.752303   17.857912
  57 H     1.0000    0     1.008   33.145796   21.051549   15.798110
  58 O     8.0000    0    15.999   19.180720   15.892597   13.473747
  59 H     1.0000    0     1.008   18.462624   15.061117   11.980864
  60 H     1.0000    0     1.008   17.744528   16.138261   14.702069
  61 O     8.0000    0    15.999   22.298768   12.037555   14.380816
  62 H     1.0000    0     1.008   21.429494   13.549336   13.851693
  63 H     1.0000    0     1.008   24.094008   12.302117   14.399713
  64 O     8.0000    0    15.999   28.893913   26.267193   29.271858
  65 H     1.0000    0     1.008   30.462385   26.418371   28.251406
  66 H     1.0000    0     1.008   28.081330   24.755412   28.648248
  67 O     8.0000    0    15.999   23.092453   19.331898   28.553762
  68 H     1.0000    0     1.008   22.525536   21.108241   28.289200
  69 H     1.0000    0     1.008   24.471953   19.086234   27.268748
  70 O     8.0000    0    15.999   20.182275   14.891042   27.079775
  71 H     1.0000    0     1.008   20.541323   16.497309   27.854563
  72 H     1.0000    0     1.008   19.672049   13.870590   28.478173
  73 O     8.0000    0    15.999   13.360364   16.629590   21.864131
  74 H     1.0000    0     1.008   11.943069   15.457960   21.901926
  75 H     1.0000    0     1.008   14.645378   15.741419   22.827892
  76 O     8.0000    0    15.999   18.783878   27.646693   18.538213
  77 H     1.0000    0     1.008   18.065782   26.456166   19.747638
  78 H     1.0000    0     1.008   20.409042   28.270303   19.313001
  79 O     8.0000    0    15.999   13.209186   30.708050   20.749193
  80 H     1.0000    0     1.008   14.135151   30.915920   19.199618
  81 H     1.0000    0     1.008   13.549336   28.988399   21.335008
  82 O     8.0000    0    15.999   11.527329   26.531755   22.922378
  83 H     1.0000    0     1.008   12.207631   25.927043   24.509748
  84 H     1.0000    0     1.008   11.716302   25.076666   21.807440
  85 O     8.0000    0    15.999   11.243870   21.486186   20.560220
  86 H     1.0000    0     1.008   12.018658   20.201172   21.580672
  87 H     1.0000    0     1.008   11.281665   20.824782   18.878364
  88 O     8.0000    0    15.999   34.506399   14.097357   13.870590
  89 H     1.0000    0     1.008   35.734721   14.702069   15.080015
  90 H     1.0000    0     1.008   34.997728   15.004426   12.358809
  91 O     8.0000    0    15.999   25.775864   12.698960   23.432604
  92 H     1.0000    0     1.008   25.208947   14.418610   23.961727
  93 H     1.0000    0     1.008   27.174262   13.246980   22.468844
  94 O     8.0000    0    15.999   21.013755   19.804330   10.525775
  95 H     1.0000    0     1.008   20.541323   18.764981   11.924172
  96 H     1.0000    0     1.008   21.505083   21.353905   11.224973
  97 O     8.0000    0    15.999   29.498625   26.456166   21.013755
  98 H     1.0000    0     1.008   30.613563   27.854563   21.542878
  99 H     1.0000    0     1.008   29.706495   26.550652   19.124028
 100 O     8.0000    0    15.999   27.268748   17.820117   25.624686
 101 H     1.0000    0     1.008   28.326995   16.724076   26.701830
 102 H     1.0000    0     1.008   28.289200   17.914604   24.075111
 103 O     8.0000    0    15.999   32.881235   22.582227   22.601125
 104 H     1.0000    0     1.008   31.766296   21.108241   22.412152
 105 H     1.0000    0     1.008   31.841885   23.886138   21.977515
 106 O     8.0000    0    15.999   27.306543   12.774549   15.136706
 107 H     1.0000    0     1.008   28.043536   12.566679   13.398158
 108 H     1.0000    0     1.008   28.515967   12.207631   16.383926
 109 O     8.0000    0    15.999   15.136706   14.985528   16.799665
 110 H     1.0000    0     1.008   14.380816   15.968186   18.160268
 111 H     1.0000    0     1.008   13.719412   14.210741   16.081569
 112 Q     0.6645    0     0.000   15.344576   13.284775   36.452817
 113 Q     0.6645    0     0.000   13.171391   11.716302   35.224495
 114 Q    -1.3290    0     0.000   14.191843   12.906829   35.318981
 115 Q     0.6645    0     0.000   27.608899   11.130487    9.429733
 116 Q     0.6645    0     0.000   30.386796   10.714747    9.618706
 117 Q    -1.3290    0     0.000   29.101782   11.470638    9.902165
 118 Q     0.6645    0     0.000   14.626480   18.746083   11.678508
 119 Q     0.6645    0     0.000   16.327234   20.843679   11.338357
 120 Q    -1.3290    0     0.000   15.363473   20.049994   12.169836
 121 Q     0.6645    0     0.000   21.920823   33.278077   25.851454
 122 Q     0.6645    0     0.000   24.831001   33.145796   26.040426
 123 Q    -1.3290    0     0.000   23.451501   33.844995   25.719173
 124 Q     0.6645    0     0.000   27.041981   12.680062   -0.377945
 125 Q     0.6645    0     0.000   26.664036   14.720967    1.473986
 126 Q    -1.3290    0     0.000   27.495515   13.870590    0.510226
 127 Q     0.6645    0     0.000   12.661165    4.289678   16.176056
 128 Q     0.6645    0     0.000   10.299007    5.763665   17.158713
 129 Q    -1.3290    0     0.000   11.659610    5.499103   16.327234
 130 Q     0.6645    0     0.000   26.399474   33.977276   18.557111
 131 Q     0.6645    0     0.000   25.775864   34.468605   21.410597
 132 Q    -1.3290    0     0.000   26.493960   33.731611   20.163378
 133 Q     0.6645    0     0.000   12.925727   41.460591   31.104892
 134 Q     0.6645    0     0.000   10.865925   39.192920   30.953714
 135 Q    -1.3290    0     0.000   11.697405   40.496831   31.539529
 136 Q     0.6645    0     0.000   17.461069   36.981940   29.498625
 137 Q     0.6645    0     0.000   16.667385   39.646454   28.591556
 138 Q    -1.3290    0     0.000   17.234302   38.153571   28.440378
 139 Q     0.6645    0     0.000   36.622892   31.615118   20.579118
 140 Q     0.6645    0     0.000   35.885899   29.706495   22.620022
 141 Q    -1.3290    0     0.000   35.659132   30.500180   21.278316
 142 Q     0.6645    0     0.000    2.362158   12.642268   13.417056
 143 Q     0.6645    0     0.000   -0.415740   12.547782   14.361919
 144 Q    -1.3290    0     0.000    0.793685   13.133597   13.492645
 145 Q     0.6645    0     0.000   40.874776   12.113145   19.501974
 146 Q     0.6645    0     0.000   39.268509   14.248535   18.576008
 147 Q    -1.3290    0     0.000   39.722043   12.774549   18.651597
 148 Q     0.6645    0     0.000   28.402584   30.027748   11.395049
 149 Q     0.6645    0     0.000   29.876570   30.235618   13.946179
 150 Q    -1.3290    0     0.000   29.196269   30.745844   12.566679
 151 Q     0.6645    0     0.000   15.968186   11.980864   18.613802
 152 Q     0.6645    0     0.000   17.706734   10.469083   20.579118
 153 Q    -1.3290    0     0.000   16.440617   10.714747   19.539768
 154 Q     0.6645    0     0.000    7.105370   10.072240   26.512858
 155 Q     0.6645    0     0.000    6.217199   12.812343   26.229399
 156 Q    -1.3290    0     0.000    6.103815   11.319460   26.626241
 157 Q     0.6645    0     0.000   34.733166   26.947495   11.924172
 158 Q     0.6645    0     0.000   35.923694   29.517522   12.283220
 159 Q    -1.3290    0     0.000   35.526851   28.081330   12.755651
 160 Q     0.6645    0     0.000   31.898577   16.043775    3.855041
 161 Q     0.6645    0     0.000   30.235618   17.461069    5.801459
 162 Q    -1.3290    0     0.000   31.218276   17.290994    4.573137
 163 Q     0.6645    0     0.000   32.106447   27.911255   35.243392
 164 Q     0.6645    0     0.000   30.556872   26.739625   33.089105
 165 Q    -1.3290    0     0.000   31.841885   27.023084   33.958379
 166 Q     0.6645    0     0.000   12.113145    8.938405   10.563569
 167 Q     0.6645    0     0.000   11.848583    6.368377    9.221864
 168 Q    -1.3290    0     0.000   11.659610    7.917953    9.391939
 169 Q     0.6645    0     0.000   16.270542    2.040904   18.991748
 170 Q     0.6645    0     0.000   13.983973    0.415740   18.632700
 171 Q    -1.3290    0     0.000   15.080015    1.473986   18.179165
 172 Q     0.6645    0     0.000   14.248535    8.012439   21.637364
 173 Q     0.6645    0     0.000   11.772994    6.349480   22.090899
 174 Q    -1.3290    0     0.000   13.020213    7.313240   22.487741
 175 Q     0.6645    0     0.000   36.830762   18.991748   24.868796
 176 Q     0.6645    0     0.000   36.339434   16.402823   26.342782
 177 Q    -1.3290    0     0.000   36.792968   18.027987   26.153810
 178 Q     0.6645    0     0.000   21.467289   26.664036   10.771439
 179 Q     0.6645    0     0.000   18.821672   27.401029   10.658055
 180 Q    -1.3290    0     0.000   20.352350   27.703385   10.620261
 181 Q     0.6645    0     0.000   18.557111   26.909700   33.863892
 182 Q     0.6645    0     0.000   17.007535   28.289200   31.879680
 183 Q    -1.3290    0     0.000   18.084679   27.268748   32.408803
 184 Q     0.6645    0     0.000   14.702069   31.350557   33.032413
 185 Q     0.6645    0     0.000   12.944624   30.670255   30.934817
 186 Q    -1.3290    0     0.000   14.343021   30.972611   31.558426
 187 Q     0.6645    0     0.000   31.067098   14.135151   30.197824
 188 Q     0.6645    0     0.000   31.350557   16.856357   29.215166
 189 Q    -1.3290    0     0.000   30.575769   15.628035   29.687598
 190 Q     0.6645    0     0.000   20.068892   32.182036   18.916159
 191 Q     0.6645    0     0.000   21.240522   34.393016   20.068892
 192 Q    -1.3290    0     0.000   20.012200   33.599331   19.558665
 193 Q     0.6645    0     0.000   31.501735   13.757206   33.920584
 194 Q     0.6645    0     0.000   30.934817   10.809233   33.674920
 195 Q    -1.3290    0     0.000   31.652913   12.169836   33.296974
 196 Q     0.6645    0     0.000   24.471953   15.873700   36.112666
 197 Q     0.6645    0     0.000   23.678268   16.440617   38.739386
 198 Q    -1.3290    0     0.000   23.810549   15.514652   37.492166
 199 Q     0.6645    0     0.000   22.242077    7.785672    6.595144
 200 Q     0.6645    0     0.000   21.939720    5.102261    5.555795
 201 Q    -1.3290    0     0.000   22.771200    6.425069    5.971535
 202 Q     0.6645    0     0.000   25.190049   20.598015   38.531516
 203 Q     0.6645    0     0.000   25.775864   19.879919   41.271619
 204 Q    -1.3290    0     0.000   26.021529   19.842124   39.722043
 205 Q     0.6645    0     0.000   33.372564   12.793446   24.339673
 206 Q     0.6645    0     0.000   35.507954   12.377706   26.134912
 207 Q    -1.3290    0     0.000   34.525296   13.246980   25.379022
[...]
 341   Q   :    0.284799558    0.037490819   -0.002143786
 342   Q   :   -0.167917118   -0.093597643    0.222723111
 343   Q   :   -0.109829857    0.042529256   -0.221913632
 344   Q   :   -0.180999534   -0.159389898   -0.057408393
 345   Q   :    0.176831185    0.088134534   -0.131023961
 346   Q   :    0.010377609    0.066279828    0.190167269
 347   Q   :   -0.280299286   -0.043617561   -0.021640352
 348   Q   :    0.148919614    0.240719977   -0.087761143
 349   Q   :    0.135475438   -0.198880835    0.107038619
 350   Q   :    0.245907934    0.152027563   -0.005946200
 351   Q   :   -0.121003663   -0.104121355    0.237519283
 352   Q   :   -0.121812226   -0.039317724   -0.238109842
 353   Q   :    0.185342298    0.235274986   -0.106198334
 354   Q   :   -0.023648486   -0.053796570    0.292235018
 355   Q   :   -0.158855946   -0.181078043   -0.183799993
 356   Q   :   -0.136470312    0.205125429    0.023602144
 357   Q   :    0.276433812   -0.030908249    0.009632276
 358   Q   :   -0.132937786   -0.163668274   -0.032987621
 359   Q   :    0.096196944   -0.218914511    0.128059353
 360   Q   :    0.041134222    0.061968092   -0.273332649
 361   Q   :   -0.129786964    0.152934464    0.145487716
 362   Q   :    0.143936912   -0.189539845   -0.117805192
 363   Q   :   -0.285073951   -0.000857254    0.023887385
 364   Q   :    0.137137842    0.176035948    0.097191019
 365   Q   :    0.177171801    0.167575802    0.120740710
 366   Q   :   -0.063598865   -0.220318512    0.008320803
 367   Q   :   -0.099851599    0.069243957   -0.120092591
 368   Q   :    0.290508292    0.055499135    0.046197277
 369   Q   :   -0.121221127    0.003041713   -0.238154253
 370   Q   :   -0.173141308   -0.053205407    0.183749463
 371   Q   :   -0.101604294    0.185746780   -0.161837022
 372   Q   :   -0.166557797   -0.253454253    0.130557884
 373   Q   :    0.258516521    0.073850816    0.042938313
 374   Q   :   -0.061825717   -0.044109354    0.264765288
 375   Q   :   -0.176581893    0.065922115   -0.193047448
 376   Q   :    0.236981225   -0.016259181   -0.074122861
 377   Q   :    0.183294911   -0.062102675    0.173193872
 378   Q   :    0.033254494   -0.069965863   -0.266648430
 379   Q   :   -0.219422884    0.131566889    0.078388697
 380   Q   :   -0.191457068    0.104000876    0.202131563
 381   Q   :    0.040781640    0.111829296   -0.258370540
 382   Q   :    0.143252576   -0.219824182    0.064416314
 383   Q   :   -0.066979549    0.277679982    0.126773971
 384   Q   :    0.063118251   -0.221627640    0.161473816
 385   Q   :   -0.002300490   -0.053248262   -0.290359259
 386   Q   :    0.223469970    0.066801985    0.108006219
 387   Q   :   -0.234358552    0.106113250    0.073583862
 388   Q   :    0.014643119   -0.168475936   -0.187710399
 389   Q   :   -0.282699697    0.010355922   -0.024616212
 390   Q   :    0.198937413   -0.122718995   -0.183974374
 391   Q   :    0.082912790    0.107347461    0.199835360
 392   Q   :    0.222077609    0.148656749   -0.056816672
 393   Q   :   -0.082602014   -0.062370684    0.227674290
 394   Q   :   -0.136623252   -0.085529429   -0.179842308
 395   Q   :    0.140787943    0.020376259   -0.223364824
 396   Q   :    0.085172764   -0.172489482    0.222418967
 397   Q   :   -0.224758018    0.143913666    0.007012279
 398   Q   :   -0.179445780   -0.234579877   -0.043853259
 399   Q   :   -0.080319323    0.207643389    0.212668801
 400   Q   :    0.268657660    0.025519453   -0.151222880
 401   Q   :    0.051847010    0.177273267    0.177148336
 402   Q   :   -0.080197255   -0.249158022    0.022423853
 403   Q   :    0.027653141    0.062968978   -0.204489035
 404   Q   :    0.244371906    0.085069308    0.096621509
 405   Q   :   -0.264912210    0.115007610    0.070744300
 406   Q   :    0.003583701   -0.197143430   -0.166368477
 407   Q   :   -0.070405372    0.187701458    0.225682875
 408   Q   :    0.093680519    0.105868133   -0.274992983
 409   Q   :   -0.023692331   -0.291527089    0.045404722
 410   Q   :    0.200354072   -0.175562012   -0.139390675
 411   Q   :   -0.224768984    0.142963626   -0.124534323
 412   Q   :    0.018735434    0.026563119    0.260335847
 413   Q   :    0.025530658    0.297610663   -0.019821847
 414   Q   :    0.045188576   -0.145216685    0.212695692
 415   Q   :   -0.057255209   -0.140904036   -0.209224651
 416   Q   :   -0.008223528    0.162021299   -0.202384057
 417   Q   :    0.028449211   -0.278551534   -0.026301773
 418   Q   :   -0.026446049    0.106217345    0.231363655
 419   Q   :    0.152758687   -0.035325649   -0.201642269
 420   Q   :   -0.264224035    0.077678819    0.008845777
 421   Q   :    0.114617252   -0.035193643    0.198874342
 422   Q   :    0.146687577    0.159289942    0.190503036
 423   Q   :    0.058606767   -0.259131502   -0.073463886
 424   Q   :   -0.199888788    0.097881063   -0.122322890
 425   Q   :   -0.243334206    0.064449197    0.130109609
 426   Q   :    0.085562370    0.103160020   -0.259284433
 427   Q   :    0.166126872   -0.164195038    0.128650985
 428   Q   :   -0.140801531    0.008116221    0.245998864
 429   Q   :    0.079357908    0.202342465   -0.125875751
 430   Q   :    0.054888552   -0.208247946   -0.101321351
 431   Q   :    0.250323365    0.148086111    0.080698963
 432   Q   :   -0.107074494   -0.202818031    0.190415566
 433   Q   :   -0.151262519    0.061569900   -0.264519252
 434   Q   :   -0.076300880    0.076422164    0.234690901
 435   Q   :    0.213923526    0.132355281   -0.186330312
 436   Q   :   -0.123731217   -0.200815780   -0.043902206
 437   Q   :   -0.094848329    0.123040508    0.251476174
 438   Q   :    0.276666552    0.083801835   -0.115013182
 439   Q   :   -0.185505252   -0.204302915   -0.141940777
 440   Q   :    0.035326341    0.137770101   -0.241358783
 441   Q   :    0.196239145   -0.053836027    0.200482918
 442   Q   :   -0.233929333   -0.079782313    0.033661389
 443   Q   :   -0.004341102    0.263231950    0.018674031
 444   Q   :   -0.212146884   -0.199780301   -0.003712330
 445   Q   :    0.216113979   -0.058442972   -0.023333400
 446   Q   :    0.246401328   -0.001227006    0.145423909
 447   Q   :   -0.270888498   -0.011685751    0.147656046
 448   Q   :    0.013038388    0.014441515   -0.297578746
 449   Q   :    0.152152941   -0.175847861    0.135689043
 450   Q   :   -0.291743115    0.045483396   -0.006499992
 451   Q   :    0.137133323    0.123712668   -0.126221798
 452   Q   :    0.234586961    0.052808408   -0.039626689
 453   Q   :   -0.117766038   -0.104631813    0.251793660
 454   Q   :   -0.112521055    0.039786598   -0.201474456
 455   Q   :   -0.021473797   -0.298775252    0.095748043
 456   Q   :    0.144222626    0.082055876   -0.193467435
 457   Q   :   -0.125598615    0.218961371    0.110461469
 458   Q   :    0.029211120   -0.082372199    0.268843739
 459   Q   :    0.157042814    0.164890261   -0.136438316
 460   Q   :   -0.194119090   -0.091415990   -0.129729425
 461   Q   :    0.056750380    0.262441815   -0.136542304
 462   Q   :   -0.015191560   -0.048016519    0.260122732
 463   Q   :   -0.042122362   -0.216663726   -0.134735151
 464   Q   :   -0.183582488    0.159203788   -0.037719780
 465   Q   :    0.030179898   -0.237199549    0.101978337
 466   Q   :    0.148229058    0.076446818   -0.066213706
 467   Q   :   -0.056205147   -0.112353094    0.315263303
 468   Q   :    0.176993098   -0.119908033   -0.129662220
 469   Q   :   -0.127901010    0.243443364   -0.169161134
 470   Q   :    0.270627225   -0.141831742   -0.011539512
 471   Q   :   -0.132772102    0.120366549   -0.233963860
 472   Q   :   -0.133035257    0.022585129    0.247079694
 473   Q   :    0.056234833    0.172233516    0.197818130
 474   Q   :   -0.249948118   -0.105528154   -0.065942733
 475   Q   :    0.190215977   -0.058798279   -0.121215352
 476   Q   :    0.106537176   -0.193725931   -0.187267467
 477   Q   :   -0.194738242   -0.071408577    0.201639983
 478   Q   :    0.092994144    0.271776226   -0.008023182
 479   Q   :    0.070590335   -0.255217778    0.025661218
 480   Q   :   -0.038503789    0.150718614   -0.210255410
 481   Q   :   -0.031118768    0.099123038    0.173982263
 482   Q   :    0.046617824   -0.189937404   -0.183965278
 483   Q   :   -0.223295952    0.133611730    0.061369085
 484   Q   :    0.165111486    0.061844528    0.109784281
 485   Q   :   -0.278612530   -0.034772681   -0.015644126
 486   Q   :    0.193126439   -0.161110247   -0.105412232
 487   Q   :    0.073904663    0.203095694    0.114297871
 488   Q   :   -0.036246166   -0.244831774   -0.181092911
 489   Q   :   -0.243065010    0.176901275    0.065562728
 490   Q   :    0.282375604    0.076677595    0.113095417
 491   Q   :    0.167930824    0.177945829   -0.115984177
 492   Q   :   -0.025283048   -0.245228968   -0.035582321
 493   Q   :   -0.153801420    0.073831787    0.156058379
 494   Q   :   -0.034419905    0.177364006   -0.239152720
 495   Q   :    0.190448192   -0.151946457    0.056972112
 496   Q   :   -0.162521542   -0.020579900    0.164440311
 497   Q   :   -0.017182813    0.134533908   -0.247832490
 498   Q   :   -0.122512439   -0.263962690    0.045288788
 499   Q   :    0.136583310    0.121909737    0.193237420
 500   Q   :   -0.016406781   -0.110718496    0.236238815
 501   Q   :   -0.087830226   -0.148306254   -0.266555555
 502   Q   :    0.105278869    0.257425351    0.022193819
 503   Q   :   -0.194706109    0.139357175    0.054636631
 504   Q   :    0.176487632    0.009582476   -0.192046164
 505   Q   :    0.031838333   -0.151927820    0.145754345
 506   Q   :   -0.080016848   -0.177401722   -0.185313132
 507   Q   :    0.270742843    0.106768119    0.016441671
 508   Q   :   -0.179072393    0.082393695    0.172724020
 509   Q   :    0.228682079    0.117009969   -0.071792785
 510   Q   :   -0.131520711    0.035528740    0.244043564
 511   Q   :   -0.090098221   -0.167956348   -0.169609291
 512   Q   :   -0.117670413   -0.195632361   -0.140796819
 513   Q   :   -0.047213867    0.046220241    0.313488813
 514   Q   :    0.168420043    0.148158864   -0.157166338
 515   Q   :   -0.175869675    0.091305058   -0.127477739
 516   Q   :    0.233154582   -0.118467699   -0.089844296
 517   Q   :   -0.045339132    0.029679635    0.225726135
 518   Q   :   -0.173855567    0.083260970    0.201209790
 519   Q   :    0.028497134    0.123175673   -0.220725518
 520   Q   :    0.140327573   -0.219365242    0.018909066
 521   Q   :    0.225727163    0.110105007    0.115175229
 522   Q   :   -0.088327165    0.142769318   -0.263250513
 523   Q   :   -0.146349468   -0.250900928    0.143212244
 524   Q   :   -0.135661711    0.110849061    0.156540845
 525   Q   :    0.265387396   -0.096141317    0.043106001
 526   Q   :   -0.116489309   -0.013104437   -0.213192321
 527   Q   :    0.100560791    0.241773342    0.111865263
 528   Q   :   -0.134703751   -0.213945825    0.192188943
 529   Q   :    0.019284262   -0.026866414   -0.291761257
 530   Q   :   -0.066452410   -0.254893250   -0.109776867
 531   Q   :   -0.091141175    0.119964931    0.240594241
 532   Q   :    0.160228981    0.137089067   -0.122882167
 533   Q   :   -0.148465144    0.230946164   -0.051558555
 534   Q   :    0.162623013   -0.137592608   -0.165982992
 535   Q   :   -0.022401821   -0.101809971    0.225279275
 536   Q   :    0.204277853   -0.097958985    0.155553862
 537   Q   :   -0.272843624   -0.070584231    0.058192648
 538   Q   :    0.063353842    0.158265644   -0.209507960
 539   Q   :   -0.207341475   -0.165565948   -0.197111745
 540   Q   :   -0.016328540    0.296394478   -0.012117892
 541   Q   :    0.229848852   -0.129660009    0.205174782
 542   Q   :    0.274513083    0.018700067    0.013624082
 543   Q   :   -0.166377289    0.266643508    0.119362302
 544   Q   :   -0.118544516   -0.276582373   -0.126597611
 545   Q   :    0.030086635   -0.258759442    0.118113391
 546   Q   :    0.099917381    0.071102714   -0.280106409
 547   Q   :   -0.128200845    0.179747982    0.157173658
 548   Q   :    0.269499050   -0.046669284   -0.133701037
 549   Q   :   -0.018565766    0.025912520    0.256358707
 550   Q   :   -0.242188692    0.023566009   -0.127632109
 551   Q   :    0.173175530    0.060842245   -0.231578823
 552   Q   :    0.000588479    0.144975706    0.229588758
 553   Q   :   -0.175918648   -0.205141117   -0.009004898
 554   Q   :    0.233805467    0.119224136   -0.009434582
 555   Q   :   -0.233541006    0.027257927    0.177455003
 556   Q   :   -0.010272648   -0.156566777   -0.162218900
 557   Q   :   -0.241364508    0.099959147    0.095049080
 558   Q   :    0.060662155   -0.247988429   -0.077607058
 559   Q   :    0.187360527    0.149411501   -0.020559143
 560   Q   :   -0.222991950    0.006778484   -0.108841437
 561   Q   :    0.087840010    0.151762976    0.208132623
 562   Q   :    0.148436014   -0.155069937   -0.098445093
 563   Q   :    0.017298331    0.001761451    0.311639904
 564   Q   :    0.217999344    0.102766327   -0.158757995
 565   Q   :   -0.242152954   -0.100378877   -0.156513907
 566   Q   :   -0.154787583    0.182263668   -0.125178979
 567   Q   :    0.269560856   -0.049001919   -0.025532000
 568   Q   :   -0.113119604   -0.127867637    0.155316535
 569   Q   :    0.197476987   -0.133763233   -0.111861715
 570   Q   :   -0.073781188    0.267675462   -0.045991710
 571   Q   :   -0.126751376   -0.129085066    0.154398924
 572   Q   :    0.190817358   -0.105850692    0.131642176
 573   Q   :   -0.186147295    0.124529577    0.067664795
 574   Q   :    0.000975644   -0.023658412   -0.198032059
 575   Q   :   -0.016920443   -0.166882197    0.210110930
 576   Q   :   -0.214280831    0.045966946   -0.185143685
 577   Q   :    0.224187383    0.131351316   -0.031672141
 578   Q   :    0.199768966   -0.013531547    0.206217150
 579   Q   :    0.074489997    0.016869189   -0.277983505
 580   Q   :   -0.281903582    0.000046038    0.082304543
 581   Q   :    0.287382292   -0.002514352    0.092290058
 582   Q   :   -0.075166393    0.061019492   -0.274325960
 583   Q   :   -0.208471607   -0.053626731    0.175149772
 584   Q   :   -0.033110576    0.047242904   -0.267971054
 585   Q   :    0.210107910    0.105351900    0.152695206
 586   Q   :   -0.174165104   -0.145395267    0.126982815
 587   Q   :    0.094726857    0.128120399    0.222408595
 588   Q   :   -0.125198170   -0.277161973    0.042273220
 589   Q   :    0.028811860    0.150954471   -0.270836820
 590   Q   :    0.104055867    0.260964523    0.124217597
 591   Q   :   -0.218926006   -0.152339352    0.131525185
 592   Q   :    0.111060999   -0.113523943   -0.263944465
 593   Q   :   -0.007600663    0.315801374    0.103966135
 594   Q   :    0.164430254   -0.065082759   -0.288054484
 595   Q   :   -0.163901198   -0.255725474    0.183994723
 596   Q   :    0.076122743   -0.096029086   -0.242945531
 597   Q   :    0.071799371   -0.124051981    0.277637630
 598   Q   :   -0.154268295    0.231188439   -0.034284814
 599   Q   :    0.110681715    0.267261291   -0.069996918
 600   Q   :    0.035686035   -0.241304892   -0.115488797
 601   Q   :   -0.141671513   -0.016955108    0.195369930
 602   Q   :   -0.155134694   -0.177699059   -0.156882103
 603   Q   :   -0.034296193    0.087774628    0.250017179
 604   Q   :    0.183824443    0.089469482   -0.091573867
 605   Q   :   -0.121581196    0.153312182   -0.160788891
 606   Q   :    0.055633570   -0.265375432   -0.031503254
 607   Q   :    0.079516656    0.114991440    0.183760245
 608   Q   :    0.167508672   -0.117213606    0.165478078
 609   Q   :   -0.089062796   -0.089755625   -0.235505030
 610   Q   :   -0.077425914    0.203641618    0.063788749
 611   Q   :    0.206937100    0.178050624    0.052218297
 612   Q   :   -0.012584857   -0.181656365   -0.214275323
 613   Q   :   -0.182162674    0.005761165    0.165261898
 614   Q   :   -0.174990447   -0.114272876    0.166847212
 615   Q   :    0.178433624    0.173784329    0.064257395
 616   Q   :   -0.006994005   -0.064761916   -0.220506336
 617   Q   :   -0.013117002   -0.104037739   -0.232874530
 618   Q   :   -0.138288755   -0.052896873    0.223027525
 619   Q   :    0.148662066    0.144791296    0.007491491
 620   Q   :    0.162922859    0.250292718   -0.051255364
 621   Q   :    0.060982264   -0.167615954    0.146327191
 622   Q   :   -0.221867930   -0.079857478   -0.106464689
 623   Q   :    0.043800109    0.194374017    0.193812154
 624   Q   :   -0.240306699   -0.002769158   -0.202421190
 625   Q   :    0.195530813   -0.186475157    0.003314451
 626   Q   :    0.212950698    0.012999445    0.209234804
 627   Q   :   -0.189979448    0.204348939   -0.067250990
 628   Q   :   -0.012463861   -0.220750911   -0.144069718
 629   Q   :    0.048958739    0.254438893    0.077767248
 630   Q   :    0.137367587   -0.172426206   -0.189346647
 631   Q   :   -0.184076495   -0.091855368    0.100336695

Difference to translation invariance:
           :    0.0000300120   -0.0001375074    0.0000563410

Difference to rotation invariance:
           :   -0.0019181944   -0.0052886751   -0.0065996573

Norm of the cartesian gradient     ...    6.2810581709
RMS gradient                       ...    0.1443635352
MAX gradient                       ...    0.3158013743

-------
TIMINGS
-------

Total SCF gradient time            ...      230.522 sec

One electron gradient       ....      29.127 sec  ( 12.6%)
RI-J Coulomb gradient       ....      12.424 sec  (  5.4%)
COSX gradient               ....     143.827 sec  ( 62.4%)
XC gradient                 ....      18.706 sec  (  8.1%)

Maximum memory used throughout the entire SCFGRAD-calculation: 885.6 MB

                            ***************************************
                            *     ORCA property calculations      *
                            ***************************************

                                    ---------------------
                                    Active property flags
                                    ---------------------
   (+) Dipole Moment


------------------------------------------------------------------------------
                       ORCA ELECTRIC PROPERTIES CALCULATION
------------------------------------------------------------------------------

Dipole Moment Calculation                       ... on
Quadrupole Moment Calculation                   ... off
Polarizability Calculation                      ... off
GBWName                                         ... final076.orca.gbw
Electron density                                ... final076.orca.scfp
The origin for moment calculation is the CENTER OF MASS  = (22.856672, 21.192913 20.394849)

-------------
DIPOLE MOMENT
-------------
                                X             Y             Z
Electronic contribution:      0.08208       1.64386       0.08940
Nuclear contribution   :      5.36522      -3.18171      10.07659
                        -----------------------------------------
Total Dipole Moment    :      5.44730      -1.53786      10.16599
                        -----------------------------------------
Magnitude (a.u.)       :     11.63553
Magnitude (Debye)      :     29.57516



--------------------
Rotational spectrum 
--------------------
 
Rotational constants in cm-1:     0.002047     0.001273     0.001113 
Rotational constants in MHz :    61.360016    38.155336    33.368464 

 Dipole components along the rotational axes: 
x,y,z [a.u.] :    -0.528492     7.391892     8.970289 
x,y,z [Debye]:    -1.343319    18.788697    22.800663 

 

Timings for individual modules:

Sum of individual times         ...      981.092 sec (=  16.352 min)
GTO integral calculation        ...       14.488 sec (=   0.241 min)   1.5 %
SCF iterations                  ...      731.364 sec (=  12.189 min)  74.5 %
SCF Gradient evaluation         ...      235.240 sec (=   3.921 min)  24.0 %
                             ****ORCA TERMINATED NORMALLY****
TOTAL RUN TIME: 0 days 0 hours 16 minutes 29 seconds 221 msec
