
                                 *****************
                                 * O   R   C   A *
                                 *****************

                                            #,                                       
                                            ###                                      
                                            ####                                     
                                            #####                                    
                                            ######                                   
                                           ########,                                 
                                     ,,################,,,,,                         
                               ,,#################################,,                 
                          ,,##########################################,,             
                       ,#########################################, ''#####,          
                    ,#############################################,,   '####,        
                  ,##################################################,,,,####,       
                ,###########''''           ''''###############################       
              ,#####''   ,,,,##########,,,,          '''####'''          '####       
            ,##' ,,,,###########################,,,                        '##       
           ' ,,###''''                  '''############,,,                           
         ,,##''                                '''############,,,,        ,,,,,,###''
      ,#''                                            '''#######################'''  
     '                                                          ''''####''''         
             ,#######,   #######,   ,#######,      ##                                
            ,#'     '#,  ##    ##  ,#'     '#,    #''#        ######   ,####,        
            ##       ##  ##   ,#'  ##            #'  '#       #        #'  '#        
            ##       ##  #######   ##           ,######,      #####,   #    #        
            '#,     ,#'  ##    ##  '#,     ,#' ,#      #,         ##   #,  ,#        
             '#######'   ##     ##  '#######'  #'      '#     #####' # '####'        



                  #######################################################
                  #                        -***-                        #
                  #          Department of theory and spectroscopy      #
                  #    Directorship and core code : Frank Neese         #
                  #        Max Planck Institute fuer Kohlenforschung    #
                  #                Kaiser Wilhelm Platz 1               #
                  #                 D-45470 Muelheim/Ruhr               #
                  #                      Germany                        #
                  #                                                     #
                  #                  All rights reserved                #
                  #                        -***-                        #
                  #######################################################


                         Program Version 5.0.3 -  RELEASE  -


 With contributions from (in alphabetic order):
   Daniel Aravena         : Magnetic Suceptibility
   Michael Atanasov       : Ab Initio Ligand Field Theory (pilot matlab implementation)
   Alexander A. Auer      : GIAO ZORA, VPT2 properties, NMR spectrum
   Ute Becker             : Parallelization
   Giovanni Bistoni       : ED, misc. LED, open-shell LED, HFLD
   Martin Brehm           : Molecular dynamics
   Dmytro Bykov           : SCF Hessian
   Vijay G. Chilkuri      : MRCI spin determinant printing, contributions to CSF-ICE
   Dipayan Datta          : RHF DLPNO-CCSD density
   Achintya Kumar Dutta   : EOM-CC, STEOM-CC
   Dmitry Ganyushin       : Spin-Orbit,Spin-Spin,Magnetic field MRCI
   Miquel Garcia          : C-PCM and meta-GGA Hessian, CC/C-PCM, Gaussian charge scheme
   Yang Guo               : DLPNO-NEVPT2, F12-NEVPT2, CIM, IAO-localization
   Andreas Hansen         : Spin unrestricted coupled pair/coupled cluster methods
   Benjamin Helmich-Paris : MC-RPA, TRAH-SCF, COSX integrals
   Lee Huntington         : MR-EOM, pCC
   Robert Izsak           : Overlap fitted RIJCOSX, COSX-SCS-MP3, EOM
   Marcus Kettner         : VPT2
   Christian Kollmar      : KDIIS, OOCD, Brueckner-CCSD(T), CCSD density, CASPT2, CASPT2-K
   Simone Kossmann        : Meta GGA functionals, TD-DFT gradient, OOMP2, MP2 Hessian
   Martin Krupicka        : Initial AUTO-CI
   Lucas Lang             : DCDCAS
   Marvin Lechner         : AUTO-CI (C++ implementation), FIC-MRCC
   Dagmar Lenk            : GEPOL surface, SMD
   Dimitrios Liakos       : Extrapolation schemes; Compound Job, initial MDCI parallelization
   Dimitrios Manganas     : Further ROCIS development; embedding schemes
   Dimitrios Pantazis     : SARC Basis sets
   Anastasios Papadopoulos: AUTO-CI, single reference methods and gradients
   Taras Petrenko         : DFT Hessian,TD-DFT gradient, ASA, ECA, R-Raman, ABS, FL, XAS/XES, NRVS
   Peter Pinski           : DLPNO-MP2, DLPNO-MP2 Gradient
   Christoph Reimann      : Effective Core Potentials
   Marius Retegan         : Local ZFS, SOC
   Christoph Riplinger    : Optimizer, TS searches, QM/MM, DLPNO-CCSD(T), (RO)-DLPNO pert. Triples
   Tobias Risthaus        : Range-separated hybrids, TD-DFT gradient, RPA, STAB
   Michael Roemelt        : Original ROCIS implementation
   Masaaki Saitow         : Open-shell DLPNO-CCSD energy and density
   Barbara Sandhoefer     : DKH picture change effects
   Avijit Sen             : IP-ROCIS
   Kantharuban Sivalingam : CASSCF convergence, NEVPT2, FIC-MRCI
   Bernardo de Souza      : ESD, SOC TD-DFT
   Georgi Stoychev        : AutoAux, RI-MP2 NMR, DLPNO-MP2 response
   Willem Van den Heuvel  : Paramagnetic NMR
   Boris Wezisla          : Elementary symmetry handling
   Frank Wennmohs         : Technical directorship


 We gratefully acknowledge several colleagues who have allowed us to
 interface, adapt or use parts of their codes:
   Stefan Grimme, W. Hujo, H. Kruse, P. Pracht,  : VdW corrections, initial TS optimization,
                  C. Bannwarth, S. Ehlert          DFT functionals, gCP, sTDA/sTD-DF
   Ed Valeev, F. Pavosevic, A. Kumar             : LibInt (2-el integral package), F12 methods
   Garnet Chan, S. Sharma, J. Yang, R. Olivares  : DMRG
   Ulf Ekstrom                                   : XCFun DFT Library
   Mihaly Kallay                                 : mrcc  (arbitrary order and MRCC methods)
   Jiri Pittner, Ondrej Demel                    : Mk-CCSD
   Frank Weinhold                                : gennbo (NPA and NBO analysis)
   Christopher J. Cramer and Donald G. Truhlar   : smd solvation model
   Lars Goerigk                                  : TD-DFT with DH, B97 family of functionals
   V. Asgeirsson, H. Jonsson                     : NEB implementation
   FAccTs GmbH                                   : IRC, NEB, NEB-TS, DLPNO-Multilevel, CI-OPT
                                                   MM, QMMM, 2- and 3-layer-ONIOM, Crystal-QMMM,
                                                   LR-CPCM, SF, NACMEs, symmetry and pop. for TD-DFT,
                                                   nearIR, NL-DFT gradient (VV10), updates on ESD,
                                                   ML-optimized integration grids
   S Lehtola, MJT Oliveira, MAL Marques          : LibXC Library
   Liviu Ungur et al                             : ANISO software


 Your calculation uses the libint2 library for the computation of 2-el integrals
 For citations please refer to: http://libint.valeyev.net

 Your ORCA version has been built with support for libXC version: 5.1.0
 For citations please refer to: https://tddft.org/programs/libxc/

 This ORCA versions uses:
   CBLAS   interface :  Fast vector & matrix operations
   LAPACKE interface :  Fast linear algebra routines
   SCALAPACK package :  Parallel linear algebra routines
   Shared memory     :  Shared parallel matrices
   BLAS/LAPACK       :  OpenBLAS 0.3.15  USE64BITINT DYNAMIC_ARCH NO_AFFINITY SkylakeX SINGLE_THREADED
        Core in use  :  SkylakeX
   Copyright (c) 2011-2014, The OpenBLAS Project


================================================================================

----- Orbital basis set information -----
Your calculation utilizes the basis: def2-SVP
   F. Weigend and R. Ahlrichs, Phys. Chem. Chem. Phys. 7, 3297 (2005).

The basis set includes element-specific modifications.

Your calculation utilizes the basis: aug-cc-pVTZ 
    H, B-Ne : Obtained from the ccRepo (grant-hill.group.shef.ac.uk/ccrepo) Feb. 2017
              R. A. Kendall, T. H. Dunning, Jr., R. J. Harrison, J. Chem. Phys. 96, 6796 (1992)
         He : Obtained from the ccRepo (grant-hill.group.shef.ac.uk/ccrepo) Feb. 2017
              D. E. Woon, T. H. Dunning, Jr., J. Chem. Phys. 100, 2975 (1994)
  Li-Be, Na : Obtained from the ccRepo (grant-hill.group.shef.ac.uk/ccrepo) Feb. 2017
              B. P. Prascher, D. E. Woon, K. A. Peterson, T. H. Dunning, Jr., A. K. Wilson, Theor. Chem. Acc. 128, 69 (2011)
         Mg : Obtained from the Peterson Research Group Website (tyr0.chem.wsu.edu/~kipeters) Feb. 2017
              B. P. Prascher, D. E. Woon, K. A. Peterson, T. H. Dunning, Jr., A. K. Wilson, Theor. Chem. Acc. 128, 69 (2011)
      Al-Ar : Obtained from the ccRepo (grant-hill.group.shef.ac.uk/ccrepo) Feb. 2017
              D. E. Woon, T. H. Dunning, Jr., J. Chem. Phys. 98, 1358 (1993)
      Sc-Zn : Obtained from the ccRepo (grant-hill.group.shef.ac.uk/ccrepo) Feb. 2017
              N. B. Balabanov, K. A. Peterson, J. Chem. Phys. 123, 064107 (2005)
              N. B. Balabanov, K. A. Peterson, J. Chem. Phys. 125, 074110 (2006)
      Ga-Kr : Obtained from the ccRepo (grant-hill.group.shef.ac.uk/ccrepo) Feb. 2017
              A. K. Wilson, D. E. Woon, K. A. Peterson, T. H. Dunning, Jr., J. Chem. Phys. 110, 7667 (1999)
     Ag, Au : Obtained from the Peterson Research Group Website (tyr0.chem.wsu.edu/~kipeters) Feb. 2017
              K. A. Peterson, C. Puzzarini, Theor. Chem. Acc. 114, 283 (2005)

Your calculation utilizes the basis: cc-pVTZ 
       H, B-Ne : Obtained from the ccRepo (grant-hill.group.shef.ac.uk/ccrepo) Feb. 2017
                 T. H. Dunning, Jr., J. Chem. Phys. 90, 1007 (1989)
            He : Obtained from the ccRepo (grant-hill.group.shef.ac.uk/ccrepo) Feb. 2017
                 D. E. Woon, T. H. Dunning, Jr., J. Chem. Phys. 100, 2975 (1994)
  Li-Be, Na-Mg : Obtained from the ccRepo (grant-hill.group.shef.ac.uk/ccrepo) Feb. 2017
                 B. P. Prascher, D. E. Woon, K. A. Peterson, T. H. Dunning, Jr., A. K. Wilson, Theor. Chem. Acc. 128, 69 (2011)
         Al-Ar : Obtained from the ccRepo (grant-hill.group.shef.ac.uk/ccrepo) Feb. 2017
                 D. E. Woon, T. H. Dunning, Jr., J. Chem. Phys. 98, 1358 (1993)
            Ca : Obtained from the Peterson Research Group Website (tyr0.chem.wsu.edu/~kipeters) Feb. 2017
                 J. Koput, K. A. Peterson, J. Phys. Chem. 106, 9595 (2002)
         Sc-Zn : Obtained from the ccRepo (grant-hill.group.shef.ac.uk/ccrepo) Feb. 2017
                 N. B. Balabanov, K. A. Peterson, J. Chem. Phys. 123, 064107 (2005)
                 N. B. Balabanov, K. A. Peterson, J. Chem. Phys. 125, 074110 (2006)
         Ga-Kr : Obtained from the ccRepo (grant-hill.group.shef.ac.uk/ccrepo) Feb. 2017
                 A. K. Wilson, D. E. Woon, K. A. Peterson, T. H. Dunning, Jr., J. Chem. Phys. 110, 7667 (1999)
             Y : Obtained from the ccRepo (grant-hill.group.shef.ac.uk/ccrepo) Feb. 2017
                 K. A. Peterson, D. Figgen, M. Dolg, H. Stoll, J. Chem. Phys. 126, 124101 (2007)
        Ag, Au : Obtained from the Peterson Research Group Website (tyr0.chem.wsu.edu/~kipeters) Feb. 2017
                 K. A. Peterson, C. Puzzarini, Theor. Chem. Acc. 114, 283 (2005)

----- AuxJ basis set information -----
Your calculation utilizes the auxiliary basis: def2/J
   F. Weigend, Phys. Chem. Chem. Phys. 8, 1057 (2006).

================================================================================
                                        WARNINGS
                       Please study these warnings very carefully!
================================================================================

WARNING: The globally-selected AuxJ basis set is optimized for use with ECPs
         Make sure a suitable alternative is explicitly given all heavy elements (Z>36)

INFO   : the flag for use of the SHARK integral package has been found!

================================================================================
                                       INPUT FILE
================================================================================
NAME = final036.orca.inp
|  1> ! NoMOPrint PrintBasis #MINIPRINT SMALLPRINT LARGEPRINT
|  2> ! ALLPOP XYZFILE
|  3> #! BP86 3-21G   TightSCF
|  4> ! ENGRAD
|  5> ! B3LYP NormalPNO PModel #DecontractAux
|  6> #! VerySlowConv 
|  7>  %maxcore 5000
|  8>  %scf  maxiter   500  end 
|  9> 
| 10> %pal
| 11>     nprocs 32
| 12> end
| 13> 
| 14> %basis
| 15>     NewGTO O    # New basis for oxygen
| 16>         "aug-cc-pVTZ"
| 17>     end
| 18>     NewGTO C    # New basis for carbon
| 19>         "aug-cc-pVTZ"
| 20>     end
| 21>     NewGTO H    # New basis for hydrogen
| 22>         "cc-pVTZ"
| 23>     end
| 24> end
| 25> 
| 26> * xyz 0   1
| 27>   C  12.56  11.46  11.85  #1
| 28>   H  13.04  12.35  12.09  #2
| 29>   H  13.28  10.62  11.86  #3
| 30>   C  11.81  11.65  10.5  #4
| 31>   H  11.23  12.6  10.61  #5
| 32>   H  12.62  11.87  9.8  #6
| 33>   C  10.88  10.41  10.13  #7
| 34>   H  10.33  10.03  11.02  #8
| 35>   H  11.45  9.66  9.65  #9
| 36>   C  9.91  10.81  9.05  #10
| 37>   H  10.43  11.12  8.15  #11
| 38>   H  9.17  11.55  9.43  #12
| 39>   O  9.15  9.61  8.74  #13
| 40>   H  8.59  9.28  9.44  #14
| 41>   O  11.59  11.14  12.88  #15
| 42>   H  11.99  11.25  13.73  #16
| 43>   O  15.45  10.72  10.56  #17
| 44>   H  16.33  10.41  10.25  #18
| 45>   H  15.72  11.45  11.14  #19
| 46>   O  6.38  8.2  7.98  #20
| 47>   H  5.67  8.75  7.57  #21
| 48>   H  6.46  8.58  8.85  #22
| 49>   O  6.77  11.86  11.23  #23
| 50>   H  7.6  12.16  11.72  #24
| 51>   H  6.61  12.43  10.48  #25
| 52>   O  12.02  12.08  16.19  #26
| 53>   H  11.86  11.45  16.92  #27
| 54>   H  12.95  11.85  15.92  #28
| 55>   O  10.93  11.99  5.13  #29
| 56>   H  10.2  11.34  5.01  #30
| 57>   H  10.62  12.7  5.64  #31
| 58>   O  6.23  15.19  8.98  #32
| 59>   H  6.25  14.19  8.78  #33
| 60>   H  6.29  15.55  8.05  #34
| 61>   O  5.75  12.37  8.74  #35
| 62>   H  4.98  11.85  9.14  #36
| 63>   H  6.33  11.72  8.29  #37
| 64>   O  7.33  11.09  6.93  #38
| 65>   H  6.6  10.4  6.78  #39
| 66>   H  8.12  10.57  7.13  #40
| 67>   O  16.19  12.84  12.75  #41
| 68>   H  17.09  12.78  13.08  #42
| 69>   H  16.23  13.57  12.13  #43
| 70>   O  9.99  14.95  9.71  #44
| 71>   H  9.87  14.87  10.65  #45
| 72>   H  10.9  15.25  9.68  #46
| 73>   O  10.84  7.59  7.5  #47
| 74>   H  10.12  6.97  7.8  #48
| 75>   H  10.45  8.4  7.78  #49
| 76>   O  13.19  14.32  7.72  #50
| 77>   H  13.57  13.45  7.87  #51
| 78>   H  12.3  14.16  7.4  #52
| 79>   O  12.92  14.89  10.36  #53
| 80>   H  13.11  14.77  9.43  #54
| 81>   H  13.77  15.27  10.61  #55
| 82>   O  13.01  12.03  2.72  #56
| 83>   H  12.6  12.34  3.54  #57
| 84>   H  12.35  11.59  2.16  #58
| 85>   O  14.45  11.82  7.93  #59
| 86>   H  13.99  11.11  7.48  #60
| 87>   H  14.71  11.49  8.81  #61
| 88>   O  7.18  6.34  5.99  #62
| 89>   H  7.27  7.11  6.61  #63
| 90>   H  7.68  6.57  5.23  #64
| 91>   O  15.53  8.48  12.22  #65
| 92>   H  15.49  9.21  11.58  #66
| 93>   H  15.29  7.65  11.76  #67
| 94>   O  11.81  10.09  18.15  #68
| 95>   H  12.57  9.51  18  #69
| 96>   H  11.06  9.58  17.9  #70
| 97>   O  8.92  12.08  12.99  #71
| 98>   H  9.81  11.75  12.99  #72
| 99>   H  8.59  11.74  13.84  #73
|100>   O  10.82  8.64  14.27  #74
|101>   H  11.54  8.24  14.76  #75
|102>   H  11.06  9.22  13.58  #76
|103>   O  11.94  14.86  16.01  #77
|104>   H  12.11  13.92  15.96  #78
|105>   H  11.65  15.24  15.16  #79
|106>   O  4.48  9.85  6.67  #80
|107>   H  3.9  9.29  6.13  #81
|108>   H  3.96  10.53  7.04  #82
|109>   O  7.83  13.04  4.36  #83
|110>   H  7.06  13.55  4.55  #84
|111>   H  8.03  12.51  5.14  #85
|112>   O  4.75  11.27  13.19  #86
|113>   H  4.33  12.08  13.4  #87
|114>   H  5.52  11.59  12.76  #88
|115>   O  7.1  9.06  10.65  #89
|116>   H  7.32  8.72  11.51  #90
|117>   H  6.83  9.96  10.84  #91
|118>   O  9.06  10.31  4.22  #92
|119>   H  9.12  9.42  3.97  #93
|120>   H  8.88  10.9  3.48  #94
|121>   O  14.64  12.43  14.88  #95
|122>   H  15.01  12.74  14.02  #96
|123>   H  14.96  13.04  15.57  #97
|124>   O  12.89  10.19  6.25  #98
|125>   H  12.98  9.26  5.99  #99
|126>   H  12.09  10.63  5.93  #100
|127>   O  10.14  14.03  7.13  #101
|128>   H  10.03  14.18  8.06  #102
|129>   H  9.89  14.82  6.67  #103
|130>   O  17.82  9.87  9.31  #104
|131>   H  18.65  10.31  8.97  #105
|132>   H  18.13  8.89  9.48  #106
|133>   Q  0.6645  20.98$  9.46$  11.49$
|134>   Q  0.6645  20.86$  8.67$  10.08$
|135>   Q  -1.3290  20.79$  9.33$  10.66$
|136>   Q  0.6645  10.21$  21.32$  8.68$
|137>   Q  0.6645  10.4$  21.29$  10.22$
|138>   Q  -1.3290  9.97$  21.27$  9.48$
|139>   Q  0.6645  7.57$  16.03$  6.32$
|140>   Q  0.6645  6.25$  15.35$  5.84$
|141>   Q  -1.3290  6.72$  15.84$  6.35$
|142>   Q  0.6645  4.96$  1.91$  7.83$
|143>   Q  0.6645  4.18$  3.01$  8.17$
|144>   Q  -1.3290  4.88$  2.66$  8.07$
|145>   Q  0.6645  12.17$  16.86$  7.91$
|146>   Q  0.6645  11.05$  17.6$  8.66$
|147>   Q  -1.3290  11.73$  17.11$  8.6$
|148>   Q  0.6645  8.63$  18.34$  9.22$
|149>   Q  0.6645  9.59$  19.38$  9.1$
|150>   Q  -1.3290  9.34$  18.63$  9$
|151>   Q  0.6645  16.63$  8.35$  13.82$
|152>   Q  0.6645  17.19$  7.28$  14.71$
|153>   Q  -1.3290  17.17$  8.06$  14.36$
|154>   Q  0.6645  12.15$  20.24$  11.04$
|155>   Q  0.6645  12.23$  21.56$  11.76$
|156>   Q  -1.3290  11.85$  20.92$  11.41$
|157>   Q  0.6645  14.71$  2.38$  9.11$
|158>   Q  0.6645  15.85$  2.97$  9.93$
|159>   Q  -1.3290  15.05$  2.69$  9.8$
|160>   Q  0.6645  16.77$  6.75$  18.35$
|161>   Q  0.6645  16.03$  5.91$  17.33$
|162>   Q  -1.3290  16.49$  6.57$  17.6$
|163>   Q  0.6645  18.19$  3.24$  7.45$
|164>   Q  0.6645  17.3$  4.4$  8.22$
|165>   Q  -1.3290  17.52$  3.82$  7.59$
|166>   Q  0.6645  12.84$  15.36$  17.4$
|167>   Q  0.6645  14.23$  15.15$  18.13$
|168>   Q  -1.3290  13.44$  15.42$  18.03$
|169>   Q  0.6645  1.28$  13.58$  7.59$
|170>   Q  0.6645  2.61$  13.99$  8.25$
|171>   Q  -1.3290  2.08$  13.5$  7.79$
|172>   Q  0.6645  4.71$  7.49$  4.3$
|173>   Q  0.6645  5.38$  6.73$  5.57$
|174>   Q  -1.3290  4.78$  7.08$  5.06$
|175>   Q  0.6645  8.18$  2.85$  11.45$
|176>   Q  0.6645  9.5$  1.95$  11.4$
|177>   Q  -1.3290  8.77$  2.34$  11.08$
|178>   Q  0.6645  3.33$  7.64$  15.28$
|179>   Q  0.6645  3.1$  8.75$  16.32$
|180>   Q  -1.3290  3.32$  7.99$  16.09$
|181>   Q  0.6645  8.82$  6.91$  3.26$
|182>   Q  0.6645  7.85$  5.87$  2.97$
|183>   Q  -1.3290  8.07$  6.67$  3.11$
|184>   Q  0.6645  3.16$  16.34$  8.92$
|185>   Q  0.6645  4.29$  15.35$  9.26$
|186>   Q  -1.3290  3.48$  15.61$  9.2$
|187>   Q  0.6645  3.04$  15.93$  11.23$
|188>   Q  0.6645  3.96$  16.86$  12$
|189>   Q  -1.3290  3.31$  16.35$  11.91$
|190>   Q  0.6645  8.93$  13.46$  1.38$
|191>   Q  0.6645  8.9$  12.99$  2.95$
|192>   Q  -1.3290  9.1$  12.99$  2.1$
|193>   Q  0.6645  4.85$  18.67$  5.37$
|194>   Q  0.6645  5.35$  17.44$  6.24$
|195>   Q  -1.3290  4.81$  18.03$  5.95$
|196>   Q  0.6645  10.98$  6.48$  1.14$
|197>   Q  0.6645  11.05$  5.77$  -0.17$
|198>   Q  -1.3290  11.06$  5.8$  0.65$
|199>   Q  0.6645  3.22$  13.54$  15.12$
|200>   Q  0.6645  4.39$  13.03$  16.05$
|201>   Q  -1.3290  3.91$  13.09$  15.35$
|202>   Q  0.6645  8.53$  12.92$  18.21$
|203>   Q  0.6645  8.07$  12.35$  16.79$
|204>   Q  -1.3290  7.98$  12.6$  17.62$
|205>   Q  0.6645  6.57$  1.8$  10.68$
|206>   Q  0.6645  5.52$  2.69$  9.93$
|207>   Q  -1.3290  5.9$  2.31$  10.6$
|208>   Q  0.6645  11.85$  10.94$  19.65$
|209>   Q  0.6645  11.72$  12.51$  19.96$
|210>   Q  -1.3290  11.92$  11.69$  20.09$
|211>   Q  0.6645  10.53$  16.62$  5.88$
|212>   Q  0.6645  9.98$  15.77$  4.74$
|213>   Q  -1.3290  9.91$  16.24$  5.44$
|214>   Q  0.6645  6.13$  2.78$  6.25$
|215>   Q  0.6645  7.68$  3.22$  6.45$
|216>   Q  -1.3290  6.92$  3.15$  6.04$
|217>   Q  0.6645  15.29$  9.72$  3.85$
|218>   Q  0.6645  14.13$  10.55$  3.14$
|219>   Q  -1.3290  14.72$  9.94$  3.23$
|220>   Q  0.6645  17.01$  16.34$  14.88$
|221>   Q  0.6645  15.46$  16.32$  14.87$
|222>   Q  -1.3290  16.24$  16.6$  15.02$
|223>   Q  0.6645  8.62$  17.36$  3.04$
|224>   Q  0.6645  9.83$  18.43$  2.79$
|225>   Q  -1.3290  9.08$  18.11$  3.09$
|226>   Q  0.6645  9.74$  2.91$  7.49$
|227>   Q  0.6645  8.71$  2.6$  8.68$
|228>   Q  -1.3290  9$  2.62$  7.86$
|229>   Q  0.6645  12.12$  5.61$  19.07$
|230>   Q  0.6645  13.44$  6.42$  18.58$
|231>   Q  -1.3290  12.93$  5.93$  19.12$
|232>   Q  0.6645  6.36$  7.13$  18.95$
|233>   Q  0.6645  6.74$  7.22$  20.41$
|234>   Q  -1.3290  6.41$  7.48$  19.69$
|235>   Q  0.6645  2.94$  11.28$  15.68$
|236>   Q  0.6645  1.65$  10.61$  15.75$
|237>   Q  -1.3290  2.41$  10.73$  16.01$
|238>   Q  0.6645  18.3$  12.82$  18.1$
|239>   Q  0.6645  19.01$  13.91$  17.33$
|240>   Q  -1.3290  18.35$  13.52$  17.6$
|241>   Q  0.6645  15.83$  13.5$  3.51$
|242>   Q  0.6645  15.92$  12.58$  4.82$
|243>   Q  -1.3290  15.87$  13.31$  4.37$
|244>   Q  0.6645  14.98$  12.68$  19.81$
|245>   Q  0.6645  13.89$  11.69$  19.56$
|246>   Q  -1.3290  14.57$  12.11$  19.35$
|247>   Q  0.6645  7.63$  14.56$  -0.05$
|248>   Q  0.6645  8.64$  15.71$  0.37$
|249>   Q  -1.3290  8.27$  14.91$  0.39$
|250>   Q  0.6645  19.21$  7.18$  9.52$
|251>   Q  0.6645  18.83$  7.5$  11.05$
|252>   Q  -1.3290  18.68$  7.31$  10.22$
|253>   Q  0.6645  17.16$  8.56$  7.46$
|254>   Q  0.6645  16.71$  8.38$  5.97$
|255>   Q  -1.3290  16.78$  8.17$  6.81$
|256>   Q  0.6645  8.71$  16.54$  10.4$
|257>   Q  0.6645  7.21$  16.22$  9.92$
|258>   Q  -1.3290  7.86$  16.66$  10.28$
|259>   Q  0.6645  1.79$  2.57$  9.17$
|260>   Q  0.6645  2.15$  2.44$  10.6$
|261>   Q  -1.3290  2.3$  2.64$  9.83$
|262>   Q  0.6645  10.6$  8.85$  1.94$
|263>   Q  0.6645  11.3$  8.05$  3.1$
|264>   Q  -1.3290  10.68$  8.26$  2.52$
|265>   Q  0.6645  6.33$  4.57$  8.45$
|266>   Q  0.6645  7.34$  5.4$  7.59$
|267>   Q  -1.3290  7$  5.04$  8.33$
|268>   Q  0.6645  12.34$  20$  16$
|269>   Q  0.6645  11.05$  20.66$  16.29$
|270>   Q  -1.3290  11.61$  20.03$  16.33$
|271>   Q  0.6645  8.83$  5.76$  18.37$
|272>   Q  0.6645  9.47$  4.62$  17.68$
|273>   Q  -1.3290  8.84$  5.12$  17.86$
|274>   Q  0.6645  2.98$  12.14$  8.71$
|275>   Q  0.6645  2.56$  10.84$  9.33$
|276>   Q  -1.3290  3.12$  11.42$  9.09$
|277>   Q  0.6645  14.48$  15.84$  7.57$
|278>   Q  0.6645  15.92$  15.31$  7.48$
|279>   Q  -1.3290  15.3$  15.88$  7.47$
|280>   Q  0.6645  18.85$  11.2$  15.99$
|281>   Q  0.6645  20.17$  11.92$  16.26$
|282>   Q  -1.3290  19.69$  11.3$  15.98$
|283>   Q  0.6645  17.76$  16.22$  18.5$
|284>   Q  0.6645  16.84$  16.47$  17.2$
|285>   Q  -1.3290  17.26$  16.64$  17.93$
|286>   Q  0.6645  16.03$  10.34$  6.4$
|287>   Q  0.6645  16.99$  10.91$  5.22$
|288>   Q  -1.3290  16.23$  10.69$  5.63$
|289>   Q  0.6645  12.79$  3.58$  14.3$
|290>   Q  0.6645  13.43$  2.56$  15.32$
|291>   Q  -1.3290  13.41$  3.16$  14.69$
|292>   Q  0.6645  16.59$  10.23$  17.7$
|293>   Q  0.6645  15.62$  10.76$  18.75$
|294>   Q  -1.3290  16.26$  10.29$  18.46$
|295>   Q  0.6645  10.28$  6.09$  11.11$
|296>   Q  0.6645  11.67$  5.87$  10.49$
|297>   Q  -1.3290  11.11$  6.17$  11.03$
|298>   Q  0.6645  8.29$  8.1$  -0.01$
|299>   Q  0.6645  7.94$  6.9$  0.96$
|300>   Q  -1.3290  8.11$  7.27$  0.21$
|301>   Q  0.6645  15.01$  14.25$  0.91$
|302>   Q  0.6645  14.19$  14.55$  2.17$
|303>   Q  -1.3290  14.91$  14.47$  1.74$
|304>   Q  0.6645  6.5$  16.02$  13.87$
|305>   Q  0.6645  6.99$  16.68$  12.5$
|306>   Q  -1.3290  7.06$  16.31$  13.31$
|307>   Q  0.6645  9.19$  19.03$  6.73$
|308>   Q  0.6645  9.32$  18.92$  5.27$
|309>   Q  -1.3290  9.09$  19.3$  5.94$
|310>   Q  0.6645  11.38$  18.42$  17.82$
|311>   Q  0.6645  12.23$  17.24$  18.38$
|312>   Q  -1.3290  11.58$  17.81$  18.38$
|313>   Q  0.6645  12.12$  14.87$  3.87$
|314>   Q  0.6645  10.99$  14.36$  2.84$
|315>   Q  -1.3290  11.36$  14.9$  3.44$
|316>   Q  0.6645  5.06$  9.41$  15.75$
|317>   Q  0.6645  5.13$  10.77$  14.89$
|318>   Q  -1.3290  5.35$  10.19$  15.5$
|319>   Q  0.6645  18.62$  16.49$  13.32$
|320>   Q  0.6645  19.26$  15.52$  14.45$
|321>   Q  -1.3290  18.79$  15.73$  13.75$
|322>   Q  0.6645  20.59$  16.16$  16.53$
|323>   Q  0.6645  20.82$  14.89$  15.71$
|324>   Q  -1.3290  20.56$  15.69$  15.83$
|325>   Q  0.6645  2.99$  7.8$  13.13$
|326>   Q  0.6645  3.85$  6.61$  13.48$
|327>   Q  -1.3290  3.16$  7.05$  13.51$
|328>   Q  0.6645  5.89$  4.42$  10.95$
|329>   Q  0.6645  5.97$  5.61$  9.99$
|330>   Q  -1.3290  5.65$  5.15$  10.62$
|331>   Q  0.6645  20.7$  10.82$  9.28$
|332>   Q  0.6645  20.09$  12.08$  8.62$
|333>   Q  -1.3290  20.42$  11.3$  8.65$
|334>   Q  0.6645  4.81$  14.04$  5.02$
|335>   Q  0.6645  5.3$  14.87$  3.76$
|336>   Q  -1.3290  5.38$  14.41$  4.49$
|337>   Q  0.6645  12.34$  21.06$  7.48$
|338>   Q  0.6645  11.17$  20.5$  6.55$
|339>   Q  -1.3290  11.52$  20.92$  7.22$
|340>   Q  0.6645  15.72$  12.81$  7.37$
|341>   Q  0.6645  16.6$  13.63$  6.3$
|342>   Q  -1.3290  16.35$  13.37$  7.09$
|343>   Q  0.6645  17.59$  15.26$  3.99$
|344>   Q  0.6645  18.3$  16.56$  4.57$
|345>   Q  -1.3290  18.19$  15.73$  4.38$
|346>   Q  0.6645  16.51$  4.53$  14.26$
|347>   Q  0.6645  15.19$  5.07$  14$
|348>   Q  -1.3290  15.96$  5.16$  14.24$
|349>   Q  0.6645  6.03$  13.03$  17.68$
|350>   Q  0.6645  4.61$  12.73$  17.93$
|351>   Q  -1.3290  5.22$  13.23$  17.65$
|352>   Q  0.6645  0.93$  12.18$  12.25$
|353>   Q  0.6645  1.75$  10.87$  12.3$
|354>   Q  -1.3290  1.08$  11.34$  12.43$
|355>   Q  0.6645  8.31$  4.61$  12.41$
|356>   Q  0.6645  9.15$  3.97$  13.47$
|357>   Q  -1.3290  8.44$  4.04$  13.03$
|358>   Q  0.6645  16.44$  18.59$  15.81$
|359>   Q  0.6645  17.61$  19.49$  16.26$
|360>   Q  -1.3290  16.8$  19.31$  16.05$
|361>   Q  0.6645  11.77$  4.66$  7.76$
|362>   Q  0.6645  10.8$  4.54$  6.6$
|363>   Q  -1.3290  11.27$  4.26$  7.22$
|364>   Q  0.6645  14.35$  7.9$  13.75$
|365>   Q  0.6645  15.02$  6.85$  14.65$
|366>   Q  -1.3290  14.43$  7.38$  14.39$
|367>   Q  0.6645  11.6$  15.82$  0.91$
|368>   Q  0.6645  11.74$  14.69$  -0.14$
|369>   Q  -1.3290  11.99$  15.17$  0.53$
|370>   Q  0.6645  16.19$  11.36$  15.51$
|371>   Q  0.6645  17.14$  10$  15.13$
|372>   Q  -1.3290  16.87$  10.74$  15.56$
|373>   Q  0.6645  16.73$  13.94$  17.16$
|374>   Q  0.6645  15.29$  13.48$  17.65$
|375>   Q  -1.3290  15.85$  13.93$  17.15$
|376>   Q  0.6645  12.12$  8.71$  20.73$
|377>   Q  0.6645  11.13$  9.64$  21.06$
|378>   Q  -1.3290  11.36$  8.94$  20.84$
|379>   Q  0.6645  10.99$  6.46$  5.02$
|380>   Q  0.6645  10.34$  5.29$  4.16$
|381>   Q  -1.3290  10.41$  5.87$  4.8$
|382>   Q  0.6645  16.12$  18.1$  10.2$
|383>   Q  0.6645  15.62$  17.56$  8.96$
|384>   Q  -1.3290  15.95$  18.17$  9.41$
|385>   Q  0.6645  8.46$  17.79$  13.99$
|386>   Q  0.6645  9.65$  18.98$  14.34$
|387>   Q  -1.3290  9.18$  18.17$  14.39$
|388>   Q  0.6645  10.82$  1.96$  13.38$
|389>   Q  0.6645  11.97$  1.77$  12.37$
|390>   Q  -1.3290  11.16$  1.8$  12.61$
|391>   Q  0.6645  21.58$  15.41$  8.5$
|392>   Q  0.6645  20.33$  14.53$  8.57$
|393>   Q  -1.3290  21.18$  14.67$  8.5$
|394>   Q  0.6645  14.34$  16.26$  3.57$
|395>   Q  0.6645  14.56$  14.99$  4.43$
|396>   Q  -1.3290  14.11$  15.59$  4.04$
|397>   Q  0.6645  19.15$  12.12$  4.65$
|398>   Q  0.6645  19.32$  12.1$  6.19$
|399>   Q  -1.3290  18.95$  11.93$  5.46$
|400>   Q  0.6645  1.84$  10.52$  4.27$
|401>   Q  0.6645  2.23$  11.1$  5.5$
|402>   Q  -1.3290  1.69$  10.8$  5$
|403>   Q  0.6645  15.78$  18.43$  2.38$
|404>   Q  0.6645  15.39$  17.93$  3.84$
|405>   Q  -1.3290  15.5$  17.88$  2.97$
|406>   Q  0.6645  5.06$  6.76$  17.33$
|407>   Q  0.6645  6.45$  6.56$  16.64$
|408>   Q  -1.3290  5.81$  6.42$  17.2$
|409>   Q  0.6645  14.58$  4.28$  17.56$
|410>   Q  0.6645  14.19$  4.29$  16.09$
|411>   Q  -1.3290  14.2$  4.58$  16.87$
|412>   Q  0.6645  18.27$  6.22$  16.72$
|413>   Q  0.6645  19.27$  5.84$  15.51$
|414>   Q  -1.3290  19.03$  6.14$  16.29$
|415>   Q  0.6645  15.78$  19.62$  7.85$
|416>   Q  0.6645  16.11$  20.87$  6.76$
|417>   Q  -1.3290  15.64$  20.25$  7.19$
|418>   Q  0.6645  16.57$  18.19$  12.8$
|419>   Q  0.6645  17.97$  18.49$  11.95$
|420>   Q  -1.3290  17.23$  18.09$  12.22$
|421>   Q  0.6645  12.07$  14.67$  19.42$
|422>   Q  0.6645  10.5$  14.88$  19.75$
|423>   Q  -1.3290  11.29$  14.49$  19.76$
|424>   Q  0.6645  2.4$  4.74$  10.25$
|425>   Q  0.6645  3.77$  5.42$  10.47$
|426>   Q  -1.3290  2.92$  5.4$  10.44$
|427>   Q  0.6645  8.52$  -0.58$  6.06$
|428>   Q  0.6645  8.32$  0.93$  6.6$
|429>   Q  -1.3290  8.13$  0.21$  6.15$
|430>   Q  0.6645  10.59$  20.59$  12.88$
|431>   Q  0.6645  9.08$  20.37$  13.08$
|432>   Q  -1.3290  9.9$  20.45$  13.34$
|433>   Q  0.6645  15.7$  9.88$  1.27$
|434>   Q  0.6645  16.99$  9.58$  0.46$
|435>   Q  -1.3290  16.22$  9.86$  0.56$
|436>   Q  0.6645  12.14$  4.24$  17.38$
|437>   Q  0.6645  11.15$  2.98$  17.79$
|438>   Q  -1.3290  11.38$  3.8$  17.44$
|439>   Q  0.6645  9.05$  6.64$  20.53$
|440>   Q  0.6645  10.31$  7.44$  20.24$
|441>   Q  -1.3290  9.83$  6.76$  20.18$
|442>   Q  0.6645  4.43$  9.59$  12.08$
|443>   Q  0.6645  3.49$  8.96$  11.01$
|444>   Q  -1.3290  3.72$  9.17$  11.79$
|445>   Q  0.6645  15.26$  7.08$  6.44$
|446>   Q  0.6645  14.8$  5.65$  5.84$
|447>   Q  -1.3290  14.7$  6.43$  6.2$
|448>   Q  0.6645  -0.61$  10.54$  14.98$
|449>   Q  0.6645  0.58$  10.68$  14.11$
|450>   Q  -1.3290  0.13$  10.31$  14.69$
|451>   Q  0.6645  16.4$  4.14$  6.04$
|452>   Q  0.6645  16.21$  3.82$  4.55$
|453>   Q  -1.3290  16.01$  4.13$  5.31$
|454>   Q  0.6645  7.02$  9.36$  19.11$
|455>   Q  0.6645  7.36$  10.82$  18.58$
|456>   Q  -1.3290  7.5$  9.99$  18.83$
|457>   Q  0.6645  4.96$  12.72$  7.09$
|458>   Q  0.6645  3.47$  13.08$  6.65$
|459>   Q  -1.3290  4.28$  12.8$  6.55$
|460>   Q  0.6645  8.99$  10.07$  15.49$
|461>   Q  0.6645  7.34$  10.34$  15.69$
|462>   Q  -1.3290  8.19$  10.53$  15.55$
|463>   Q  0.6645  8.93$  8.25$  13.58$
|464>   Q  0.6645  7.46$  7.89$  13.86$
|465>   Q  -1.3290  8.14$  8.01$  13.36$
|466>   Q  0.6645  15.41$  18.74$  5.95$
|467>   Q  0.6645  15.87$  17.3$  6.27$
|468>   Q  -1.3290  15.81$  18.01$  5.77$
|469>   Q  0.6645  14.13$  20.25$  14.6$
|470>   Q  0.6645  14.92$  20.24$  15.83$
|471>   Q  -1.3290  14.25$  20.42$  15.41$
|472>   Q  0.6645  6.48$  3.03$  13.59$
|473>   Q  0.6645  5.62$  2.54$  12.6$
|474>   Q  -1.3290  5.73$  2.9$  13.31$
|475>   Q  0.6645  12.52$  17.25$  10.68$
|476>   Q  0.6645  11.98$  17.78$  12.04$
|477>   Q  -1.3290  12.49$  17.75$  11.38$
|478>   Q  0.6645  14.31$  8.33$  20.37$
|479>   Q  0.6645  14.61$  9.45$  21.32$
|480>   Q  -1.3290  14.12$  8.86$  20.95$
|481>   Q  0.6645  11.79$  16.85$  2.94$
|482>   Q  0.6645  12.74$  17.74$  2.06$
|483>   Q  -1.3290  12.03$  17.56$  2.5$
|484>   Q  0.6645  11$  4.8$  14.33$
|485>   Q  0.6645  10.59$  3.93$  15.54$
|486>   Q  -1.3290  10.69$  4.1$  14.71$
|487>   Q  0.6645  10.24$  4.61$  1.87$
|488>   Q  0.6645  10.3$  3.18$  2.61$
|489>   Q  -1.3290  10.04$  3.99$  2.46$
|490>   Q  0.6645  12.9$  6.26$  13.81$
|491>   Q  0.6645  11.64$  6.5$  12.98$
|492>   Q  -1.3290  12.1$  6.18$  13.61$
|493>   Q  0.6645  8.05$  3.81$  2.86$
|494>   Q  0.6645  7.02$  4.15$  3.91$
|495>   Q  -1.3290  7.29$  4.11$  3.13$
|496>   Q  0.6645  19.04$  5.52$  13.48$
|497>   Q  0.6645  19.89$  4.26$  13.7$
|498>   Q  -1.3290  19.28$  4.82$  13.9$
|499>   Q  0.6645  17.58$  19.21$  8.74$
|500>   Q  0.6645  18.17$  20.59$  9.16$
|501>   Q  -1.3290  18.18$  19.81$  8.73$
|502>   Q  0.6645  17.92$  8.12$  4.15$
|503>   Q  0.6645  16.75$  7.22$  3.68$
|504>   Q  -1.3290  17.12$  7.93$  3.94$
|505>   Q  0.6645  7.91$  5.78$  10.33$
|506>   Q  0.6645  8.27$  6.42$  11.65$
|507>   Q  -1.3290  8.36$  5.87$  11.04$
|508>   Q  0.6645  15$  19.92$  12.25$
|509>   Q  0.6645  14.12$  18.68$  12.47$
|510>   Q  -1.3290  14.64$  19.32$  12.71$
|511>   Q  0.6645  3.97$  13$  2.81$
|512>   Q  0.6645  2.43$  12.58$  2.73$
|513>   Q  -1.3290  3.18$  12.85$  3.12$
|514>   Q  0.6645  14.93$  15.53$  20.34$
|515>   Q  0.6645  16.25$  14.93$  20.56$
|516>   Q  -1.3290  15.43$  14.89$  20.48$
|517>   Q  0.6645  17.48$  5.7$  10.18$
|518>   Q  0.6645  17.88$  4.28$  10.46$
|519>   Q  -1.3290  17.37$  4.89$  10.26$
|520>   Q  0.6645  1.72$  8.64$  9.44$
|521>   Q  0.6645  0.81$  9.59$  10.27$
|522>   Q  -1.3290  1.51$  9.34$  9.88$
|523>   Q  0.6645  14.93$  8.22$  17.8$
|524>   Q  0.6645  13.76$  7.79$  16.87$
|525>   Q  -1.3290  14.12$  8.11$  17.57$
|526>   Q  0.6645  20.3$  7.37$  12.64$
|527>   Q  0.6645  18.98$  7.63$  13.48$
|528>   Q  -1.3290  19.46$  7.37$  12.81$
|529>   Q  0.6645  0.77$  7.36$  13.11$
|530>   Q  0.6645  0.21$  8.65$  13.66$
|531>   Q  -1.3290  0.25$  8.01$  13.1$
|532>   Q  0.6645  18.99$  14.26$  12.65$
|533>   Q  0.6645  19.99$  13.66$  11.6$
|534>   Q  -1.3290  19.27$  13.71$  12.04$
|535>   Q  0.6645  20.26$  9.07$  16.26$
|536>   Q  0.6645  20.02$  7.56$  16.76$
|537>   Q  -1.3290  20.34$  8.38$  16.78$
|538>   Q  0.6645  13.23$  16.61$  5.53$
|539>   Q  0.6645  12.51$  17.95$  5.77$
|540>   Q  -1.3290  12.69$  17.17$  5.94$
|541>   Q  0.6645  6.29$  7.99$  2.72$
|542>   Q  0.6645  5.31$  9.12$  2.66$
|543>   Q  -1.3290  5.55$  8.33$  2.54$
|544>   Q  0.6645  5.53$  4.8$  13.21$
|545>   Q  0.6645  5.53$  5.91$  12.25$
|546>   Q  -1.3290  5.62$  5.58$  13.03$
|547>   Q  0.6645  5.16$  19.17$  8.5$
|548>   Q  0.6645  6.33$  19.52$  7.53$
|549>   Q  -1.3290  5.96$  19.41$  8.27$
|550>   Q  0.6645  9.42$  13.65$  12.92$
|551>   Q  0.6645  8.72$  15.06$  12.88$
|552>   Q  -1.3290  9.35$  14.49$  12.71$
|553>   Q  0.6645  13.17$  16.02$  13.64$
|554>   Q  0.6645  13.78$  15.34$  14.87$
|555>   Q  -1.3290  13.78$  15.74$  14.13$
|556>   Q  0.6645  3.49$  18.08$  7.4$
|557>   Q  0.6645  2.71$  18.86$  8.55$
|558>   Q  -1.3290  2.95$  18.18$  8.11$
|559>   Q  0.6645  7.02$  20.59$  12.15$
|560>   Q  0.6645  7.07$  20.55$  13.72$
|561>   Q  -1.3290  7.03$  20.22$  12.95$
|562>   Q  0.6645  10.62$  15.86$  13.18$
|563>   Q  0.6645  10.77$  17$  14.24$
|564>   Q  -1.3290  11.03$  16.44$  13.67$
|565>   Q  0.6645  8.73$  15.71$  18.25$
|566>   Q  0.6645  9.82$  16.62$  18.65$
|567>   Q  -1.3290  9.27$  16.07$  18.8$
|568>   Q  0.6645  8.49$  10.21$  20.67$
|569>   Q  0.6645  9.05$  10.33$  22.12$
|570>   Q  -1.3290  8.6$  10.02$  21.51$
|571>   Q  0.6645  14.08$  8.35$  2.13$
|572>   Q  0.6645  13.7$  7.81$  0.77$
|573>   Q  -1.3290  13.87$  7.78$  1.57$
|574>   Q  0.6645  6.1$  11$  4.75$
|575>   Q  0.6645  4.8$  11.01$  4.01$
|576>   Q  -1.3290  5.59$  10.79$  4.14$
|577>   Q  0.6645  17.99$  13.77$  8.53$
|578>   Q  0.6645  18.58$  13.78$  10.01$
|579>   Q  -1.3290  18.57$  13.69$  9.14$
|580>   Q  0.6645  7.27$  15.47$  2.17$
|581>   Q  0.6645  6.44$  16.91$  2.42$
|582>   Q  -1.3290  7.03$  16.22$  2.6$
|583>   Q  0.6645  15.23$  15.66$  12.79$
|584>   Q  0.6645  16.32$  16.33$  12.02$
|585>   Q  -1.3290  15.68$  15.78$  12.11$
|586>   Q  0.6645  9.22$  7.99$  16.23$
|587>   Q  0.6645  8.65$  8.98$  17.28$
|588>   Q  -1.3290  9.24$  8.58$  16.84$
|589>   Q  0.6645  8.43$  15.2$  15.95$
|590>   Q  0.6645  6.88$  15.4$  16.43$
|591>   Q  -1.3290  7.73$  15.25$  16.49$
|592>   Q  0.6645  20.86$  6.46$  8.42$
|593>   Q  0.6645  20.8$  7.84$  7.85$
|594>   Q  -1.3290  20.52$  7.21$  8.29$
|595>   Q  0.6645  8.14$  5.89$  14.51$
|596>   Q  0.6645  8.43$  5.96$  16.1$
|597>   Q  -1.3290  8.05$  6.17$  15.34$
|598>   Q  0.6645  2.13$  6.54$  9.26$
|599>   Q  0.6645  2.02$  6.72$  7.75$
|600>   Q  -1.3290  1.8$  6.88$  8.56$
|601>   Q  0.6645  7.88$  18.17$  17.83$
|602>   Q  0.6645  8.51$  18.04$  16.46$
|603>   Q  -1.3290  8.28$  18.45$  17.16$
|604>   Q  0.6645  12.24$  6.77$  8.25$
|605>   Q  0.6645  13.64$  6.29$  8.01$
|606>   Q  -1.3290  12.91$  6.31$  8.41$
|607>   Q  0.6645  14.08$  6.03$  10.5$
|608>   Q  0.6645  15.58$  5.73$  10.67$
|609>   Q  -1.3290  14.82$  6.03$  10.89$
|610>   Q  0.6645  12.83$  2.88$  6.5$
|611>   Q  0.6645  14.03$  2.88$  5.66$
|612>   Q  -1.3290  13.53$  2.54$  6.19$
|613>   Q  0.6645  19.11$  8.73$  18.57$
|614>   Q  0.6645  17.93$  9.3$  19.28$
|615>   Q  -1.3290  18.61$  8.83$  19.23$
|616>   Q  0.6645  10.34$  11.55$  1.36$
|617>   Q  0.6645  11.44$  11.18$  0.27$
|618>   Q  -1.3290  10.9$  11.04$  0.95$
|619>   Q  0.6645  5.79$  12.53$  0.91$
|620>   Q  0.6645  6.39$  12.79$  2.38$
|621>   Q  -1.3290  5.85$  12.92$  1.7$
|622>   Q  0.6645  1.79$  6.4$  5.26$
|623>   Q  0.6645  3.19$  6.18$  5.44$
|624>   Q  -1.3290  2.38$  6.07$  5.64$
|625>   Q  0.6645  4.92$  14.65$  15.12$
|626>   Q  0.6645  4.83$  15.77$  16.27$
|627>   Q  -1.3290  4.95$  15.42$  15.49$
|628>   Q  0.6645  5.61$  18.62$  12.21$
|629>   Q  0.6645  6.04$  17.98$  10.95$
|630>   Q  -1.3290  5.57$  18.08$  11.58$
|631>   Q  0.6645  13.35$  7.1$  3.56$
|632>   Q  0.6645  13.31$  6.85$  4.9$
|633>   Q  -1.3290  13.02$  7.23$  4.27$
|634>   Q  0.6645  14.2$  2.06$  11.54$
|635>   Q  0.6645  14.17$  2.16$  13.03$
|636>   Q  -1.3290  14.02$  1.77$  12.32$
|637> *
|638> 
|639>                          ****END OF INPUT****
================================================================================

                     *******************************
                     * Energy+Gradient Calculation *
                     *******************************

---------------------------------
CARTESIAN COORDINATES (ANGSTROEM)
---------------------------------
  C     12.560000   11.460000   11.850000
  H     13.040000   12.350000   12.090000
  H     13.280000   10.620000   11.860000
  C     11.810000   11.650000   10.500000
  H     11.230000   12.600000   10.610000
  H     12.620000   11.870000    9.800000
  C     10.880000   10.410000   10.130000
  H     10.330000   10.030000   11.020000
  H     11.450000    9.660000    9.650000
  C      9.910000   10.810000    9.050000
  H     10.430000   11.120000    8.150000
  H      9.170000   11.550000    9.430000
  O      9.150000    9.610000    8.740000
  H      8.590000    9.280000    9.440000
  O     11.590000   11.140000   12.880000
  H     11.990000   11.250000   13.730000
  O     15.450000   10.720000   10.560000
  H     16.330000   10.410000   10.250000
  H     15.720000   11.450000   11.140000
  O      6.380000    8.200000    7.980000
  H      5.670000    8.750000    7.570000
  H      6.460000    8.580000    8.850000
  O      6.770000   11.860000   11.230000
  H      7.600000   12.160000   11.720000
  H      6.610000   12.430000   10.480000
  O     12.020000   12.080000   16.190000
  H     11.860000   11.450000   16.920000
  H     12.950000   11.850000   15.920000
  O     10.930000   11.990000    5.130000
  H     10.200000   11.340000    5.010000
  H     10.620000   12.700000    5.640000
  O      6.230000   15.190000    8.980000
  H      6.250000   14.190000    8.780000
  H      6.290000   15.550000    8.050000
  O      5.750000   12.370000    8.740000
  H      4.980000   11.850000    9.140000
  H      6.330000   11.720000    8.290000
  O      7.330000   11.090000    6.930000
  H      6.600000   10.400000    6.780000
  H      8.120000   10.570000    7.130000
  O     16.190000   12.840000   12.750000
  H     17.090000   12.780000   13.080000
  H     16.230000   13.570000   12.130000
  O      9.990000   14.950000    9.710000
  H      9.870000   14.870000   10.650000
  H     10.900000   15.250000    9.680000
  O     10.840000    7.590000    7.500000
  H     10.120000    6.970000    7.800000
  H     10.450000    8.400000    7.780000
  O     13.190000   14.320000    7.720000
  H     13.570000   13.450000    7.870000
  H     12.300000   14.160000    7.400000
  O     12.920000   14.890000   10.360000
  H     13.110000   14.770000    9.430000
  H     13.770000   15.270000   10.610000
  O     13.010000   12.030000    2.720000
  H     12.600000   12.340000    3.540000
  H     12.350000   11.590000    2.160000
  O     14.450000   11.820000    7.930000
  H     13.990000   11.110000    7.480000
  H     14.710000   11.490000    8.810000
  O      7.180000    6.340000    5.990000
  H      7.270000    7.110000    6.610000
  H      7.680000    6.570000    5.230000
  O     15.530000    8.480000   12.220000
  H     15.490000    9.210000   11.580000
  H     15.290000    7.650000   11.760000
  O     11.810000   10.090000   18.150000
  H     12.570000    9.510000   18.000000
  H     11.060000    9.580000   17.900000
  O      8.920000   12.080000   12.990000
  H      9.810000   11.750000   12.990000
  H      8.590000   11.740000   13.840000
  O     10.820000    8.640000   14.270000
  H     11.540000    8.240000   14.760000
  H     11.060000    9.220000   13.580000
  O     11.940000   14.860000   16.010000
  H     12.110000   13.920000   15.960000
  H     11.650000   15.240000   15.160000
  O      4.480000    9.850000    6.670000
  H      3.900000    9.290000    6.130000
  H      3.960000   10.530000    7.040000
  O      7.830000   13.040000    4.360000
  H      7.060000   13.550000    4.550000
  H      8.030000   12.510000    5.140000
  O      4.750000   11.270000   13.190000
  H      4.330000   12.080000   13.400000
  H      5.520000   11.590000   12.760000
  O      7.100000    9.060000   10.650000
  H      7.320000    8.720000   11.510000
  H      6.830000    9.960000   10.840000
  O      9.060000   10.310000    4.220000
  H      9.120000    9.420000    3.970000
  H      8.880000   10.900000    3.480000
  O     14.640000   12.430000   14.880000
  H     15.010000   12.740000   14.020000
  H     14.960000   13.040000   15.570000
  O     12.890000   10.190000    6.250000
  H     12.980000    9.260000    5.990000
  H     12.090000   10.630000    5.930000
  O     10.140000   14.030000    7.130000
  H     10.030000   14.180000    8.060000
  H      9.890000   14.820000    6.670000
  O     17.820000    9.870000    9.310000
  H     18.650000   10.310000    8.970000
  H     18.130000    8.890000    9.480000
  Q     20.980000    9.460000   11.490000
  Q     20.860000    8.670000   10.080000
  Q     20.790000    9.330000   10.660000
  Q     10.210000   21.320000    8.680000
  Q     10.400000   21.290000   10.220000
  Q      9.970000   21.270000    9.480000
  Q      7.570000   16.030000    6.320000
  Q      6.250000   15.350000    5.840000
  Q      6.720000   15.840000    6.350000
  Q      4.960000    1.910000    7.830000
  Q      4.180000    3.010000    8.170000
  Q      4.880000    2.660000    8.070000
  Q     12.170000   16.860000    7.910000
  Q     11.050000   17.600000    8.660000
  Q     11.730000   17.110000    8.600000
  Q      8.630000   18.340000    9.220000
  Q      9.590000   19.380000    9.100000
  Q      9.340000   18.630000    9.000000
  Q     16.630000    8.350000   13.820000
  Q     17.190000    7.280000   14.710000
  Q     17.170000    8.060000   14.360000
  Q     12.150000   20.240000   11.040000
  Q     12.230000   21.560000   11.760000
  Q     11.850000   20.920000   11.410000
  Q     14.710000    2.380000    9.110000
  Q     15.850000    2.970000    9.930000
  Q     15.050000    2.690000    9.800000
  Q     16.770000    6.750000   18.350000
  Q     16.030000    5.910000   17.330000
  Q     16.490000    6.570000   17.600000
  Q     18.190000    3.240000    7.450000
  Q     17.300000    4.400000    8.220000
  Q     17.520000    3.820000    7.590000
  Q     12.840000   15.360000   17.400000
  Q     14.230000   15.150000   18.130000
  Q     13.440000   15.420000   18.030000
  Q      1.280000   13.580000    7.590000
  Q      2.610000   13.990000    8.250000
  Q      2.080000   13.500000    7.790000
  Q      4.710000    7.490000    4.300000
  Q      5.380000    6.730000    5.570000
  Q      4.780000    7.080000    5.060000
  Q      8.180000    2.850000   11.450000
  Q      9.500000    1.950000   11.400000
  Q      8.770000    2.340000   11.080000
  Q      3.330000    7.640000   15.280000
  Q      3.100000    8.750000   16.320000
  Q      3.320000    7.990000   16.090000
  Q      8.820000    6.910000    3.260000
  Q      7.850000    5.870000    2.970000
  Q      8.070000    6.670000    3.110000
  Q      3.160000   16.340000    8.920000
  Q      4.290000   15.350000    9.260000
  Q      3.480000   15.610000    9.200000
  Q      3.040000   15.930000   11.230000
  Q      3.960000   16.860000   12.000000
  Q      3.310000   16.350000   11.910000
  Q      8.930000   13.460000    1.380000
  Q      8.900000   12.990000    2.950000
  Q      9.100000   12.990000    2.100000
  Q      4.850000   18.670000    5.370000
  Q      5.350000   17.440000    6.240000
  Q      4.810000   18.030000    5.950000
  Q     10.980000    6.480000    1.140000
  Q     11.050000    5.770000   -0.170000
  Q     11.060000    5.800000    0.650000
  Q      3.220000   13.540000   15.120000
  Q      4.390000   13.030000   16.050000
  Q      3.910000   13.090000   15.350000
  Q      8.530000   12.920000   18.210000
  Q      8.070000   12.350000   16.790000
  Q      7.980000   12.600000   17.620000
  Q      6.570000    1.800000   10.680000
  Q      5.520000    2.690000    9.930000
  Q      5.900000    2.310000   10.600000
  Q     11.850000   10.940000   19.650000
  Q     11.720000   12.510000   19.960000
  Q     11.920000   11.690000   20.090000
  Q     10.530000   16.620000    5.880000
  Q      9.980000   15.770000    4.740000
  Q      9.910000   16.240000    5.440000
  Q      6.130000    2.780000    6.250000
  Q      7.680000    3.220000    6.450000
  Q      6.920000    3.150000    6.040000
  Q     15.290000    9.720000    3.850000
  Q     14.130000   10.550000    3.140000
  Q     14.720000    9.940000    3.230000
  Q     17.010000   16.340000   14.880000
  Q     15.460000   16.320000   14.870000
  Q     16.240000   16.600000   15.020000
  Q      8.620000   17.360000    3.040000
  Q      9.830000   18.430000    2.790000
  Q      9.080000   18.110000    3.090000
  Q      9.740000    2.910000    7.490000
  Q      8.710000    2.600000    8.680000
  Q      9.000000    2.620000    7.860000
  Q     12.120000    5.610000   19.070000
  Q     13.440000    6.420000   18.580000
  Q     12.930000    5.930000   19.120000
  Q      6.360000    7.130000   18.950000
  Q      6.740000    7.220000   20.410000
  Q      6.410000    7.480000   19.690000
  Q      2.940000   11.280000   15.680000
  Q      1.650000   10.610000   15.750000
  Q      2.410000   10.730000   16.010000
  Q     18.300000   12.820000   18.100000
  Q     19.010000   13.910000   17.330000
  Q     18.350000   13.520000   17.600000
  Q     15.830000   13.500000    3.510000
  Q     15.920000   12.580000    4.820000
  Q     15.870000   13.310000    4.370000
  Q     14.980000   12.680000   19.810000
  Q     13.890000   11.690000   19.560000
  Q     14.570000   12.110000   19.350000
  Q      7.630000   14.560000   -0.050000
  Q      8.640000   15.710000    0.370000
  Q      8.270000   14.910000    0.390000
  Q     19.210000    7.180000    9.520000
  Q     18.830000    7.500000   11.050000
  Q     18.680000    7.310000   10.220000
  Q     17.160000    8.560000    7.460000
  Q     16.710000    8.380000    5.970000
  Q     16.780000    8.170000    6.810000
  Q      8.710000   16.540000   10.400000
  Q      7.210000   16.220000    9.920000
  Q      7.860000   16.660000   10.280000
  Q      1.790000    2.570000    9.170000
  Q      2.150000    2.440000   10.600000
  Q      2.300000    2.640000    9.830000
  Q     10.600000    8.850000    1.940000
  Q     11.300000    8.050000    3.100000
  Q     10.680000    8.260000    2.520000
  Q      6.330000    4.570000    8.450000
  Q      7.340000    5.400000    7.590000
  Q      7.000000    5.040000    8.330000
  Q     12.340000   20.000000   16.000000
  Q     11.050000   20.660000   16.290000
  Q     11.610000   20.030000   16.330000
  Q      8.830000    5.760000   18.370000
  Q      9.470000    4.620000   17.680000
  Q      8.840000    5.120000   17.860000
  Q      2.980000   12.140000    8.710000
  Q      2.560000   10.840000    9.330000
  Q      3.120000   11.420000    9.090000
  Q     14.480000   15.840000    7.570000
  Q     15.920000   15.310000    7.480000
  Q     15.300000   15.880000    7.470000
  Q     18.850000   11.200000   15.990000
  Q     20.170000   11.920000   16.260000
  Q     19.690000   11.300000   15.980000
  Q     17.760000   16.220000   18.500000
  Q     16.840000   16.470000   17.200000
  Q     17.260000   16.640000   17.930000
  Q     16.030000   10.340000    6.400000
  Q     16.990000   10.910000    5.220000
  Q     16.230000   10.690000    5.630000
  Q     12.790000    3.580000   14.300000
  Q     13.430000    2.560000   15.320000
  Q     13.410000    3.160000   14.690000
  Q     16.590000   10.230000   17.700000
  Q     15.620000   10.760000   18.750000
  Q     16.260000   10.290000   18.460000
  Q     10.280000    6.090000   11.110000
  Q     11.670000    5.870000   10.490000
  Q     11.110000    6.170000   11.030000
  Q      8.290000    8.100000   -0.010000
  Q      7.940000    6.900000    0.960000
  Q      8.110000    7.270000    0.210000
  Q     15.010000   14.250000    0.910000
  Q     14.190000   14.550000    2.170000
  Q     14.910000   14.470000    1.740000
  Q      6.500000   16.020000   13.870000
  Q      6.990000   16.680000   12.500000
  Q      7.060000   16.310000   13.310000
  Q      9.190000   19.030000    6.730000
  Q      9.320000   18.920000    5.270000
  Q      9.090000   19.300000    5.940000
  Q     11.380000   18.420000   17.820000
  Q     12.230000   17.240000   18.380000
  Q     11.580000   17.810000   18.380000
  Q     12.120000   14.870000    3.870000
  Q     10.990000   14.360000    2.840000
  Q     11.360000   14.900000    3.440000
  Q      5.060000    9.410000   15.750000
  Q      5.130000   10.770000   14.890000
  Q      5.350000   10.190000   15.500000
  Q     18.620000   16.490000   13.320000
  Q     19.260000   15.520000   14.450000
  Q     18.790000   15.730000   13.750000
  Q     20.590000   16.160000   16.530000
  Q     20.820000   14.890000   15.710000
  Q     20.560000   15.690000   15.830000
  Q      2.990000    7.800000   13.130000
  Q      3.850000    6.610000   13.480000
  Q      3.160000    7.050000   13.510000
  Q      5.890000    4.420000   10.950000
  Q      5.970000    5.610000    9.990000
  Q      5.650000    5.150000   10.620000
  Q     20.700000   10.820000    9.280000
  Q     20.090000   12.080000    8.620000
  Q     20.420000   11.300000    8.650000
  Q      4.810000   14.040000    5.020000
  Q      5.300000   14.870000    3.760000
  Q      5.380000   14.410000    4.490000
  Q     12.340000   21.060000    7.480000
  Q     11.170000   20.500000    6.550000
  Q     11.520000   20.920000    7.220000
  Q     15.720000   12.810000    7.370000
  Q     16.600000   13.630000    6.300000
  Q     16.350000   13.370000    7.090000
  Q     17.590000   15.260000    3.990000
  Q     18.300000   16.560000    4.570000
  Q     18.190000   15.730000    4.380000
  Q     16.510000    4.530000   14.260000
  Q     15.190000    5.070000   14.000000
  Q     15.960000    5.160000   14.240000
  Q      6.030000   13.030000   17.680000
  Q      4.610000   12.730000   17.930000
  Q      5.220000   13.230000   17.650000
  Q      0.930000   12.180000   12.250000
  Q      1.750000   10.870000   12.300000
  Q      1.080000   11.340000   12.430000
  Q      8.310000    4.610000   12.410000
  Q      9.150000    3.970000   13.470000
  Q      8.440000    4.040000   13.030000
  Q     16.440000   18.590000   15.810000
  Q     17.610000   19.490000   16.260000
  Q     16.800000   19.310000   16.050000
  Q     11.770000    4.660000    7.760000
  Q     10.800000    4.540000    6.600000
  Q     11.270000    4.260000    7.220000
  Q     14.350000    7.900000   13.750000
  Q     15.020000    6.850000   14.650000
  Q     14.430000    7.380000   14.390000
  Q     11.600000   15.820000    0.910000
  Q     11.740000   14.690000   -0.140000
  Q     11.990000   15.170000    0.530000
  Q     16.190000   11.360000   15.510000
  Q     17.140000   10.000000   15.130000
  Q     16.870000   10.740000   15.560000
  Q     16.730000   13.940000   17.160000
  Q     15.290000   13.480000   17.650000
  Q     15.850000   13.930000   17.150000
  Q     12.120000    8.710000   20.730000
  Q     11.130000    9.640000   21.060000
  Q     11.360000    8.940000   20.840000
  Q     10.990000    6.460000    5.020000
  Q     10.340000    5.290000    4.160000
  Q     10.410000    5.870000    4.800000
  Q     16.120000   18.100000   10.200000
  Q     15.620000   17.560000    8.960000
  Q     15.950000   18.170000    9.410000
  Q      8.460000   17.790000   13.990000
  Q      9.650000   18.980000   14.340000
  Q      9.180000   18.170000   14.390000
  Q     10.820000    1.960000   13.380000
  Q     11.970000    1.770000   12.370000
  Q     11.160000    1.800000   12.610000
  Q     21.580000   15.410000    8.500000
  Q     20.330000   14.530000    8.570000
  Q     21.180000   14.670000    8.500000
  Q     14.340000   16.260000    3.570000
  Q     14.560000   14.990000    4.430000
  Q     14.110000   15.590000    4.040000
  Q     19.150000   12.120000    4.650000
  Q     19.320000   12.100000    6.190000
  Q     18.950000   11.930000    5.460000
  Q      1.840000   10.520000    4.270000
  Q      2.230000   11.100000    5.500000
  Q      1.690000   10.800000    5.000000
  Q     15.780000   18.430000    2.380000
  Q     15.390000   17.930000    3.840000
  Q     15.500000   17.880000    2.970000
  Q      5.060000    6.760000   17.330000
  Q      6.450000    6.560000   16.640000
  Q      5.810000    6.420000   17.200000
  Q     14.580000    4.280000   17.560000
  Q     14.190000    4.290000   16.090000
  Q     14.200000    4.580000   16.870000
  Q     18.270000    6.220000   16.720000
  Q     19.270000    5.840000   15.510000
  Q     19.030000    6.140000   16.290000
  Q     15.780000   19.620000    7.850000
  Q     16.110000   20.870000    6.760000
  Q     15.640000   20.250000    7.190000
  Q     16.570000   18.190000   12.800000
  Q     17.970000   18.490000   11.950000
  Q     17.230000   18.090000   12.220000
  Q     12.070000   14.670000   19.420000
  Q     10.500000   14.880000   19.750000
  Q     11.290000   14.490000   19.760000
  Q      2.400000    4.740000   10.250000
  Q      3.770000    5.420000   10.470000
  Q      2.920000    5.400000   10.440000
  Q      8.520000   -0.580000    6.060000
  Q      8.320000    0.930000    6.600000
  Q      8.130000    0.210000    6.150000
  Q     10.590000   20.590000   12.880000
  Q      9.080000   20.370000   13.080000
  Q      9.900000   20.450000   13.340000
  Q     15.700000    9.880000    1.270000
  Q     16.990000    9.580000    0.460000
  Q     16.220000    9.860000    0.560000
  Q     12.140000    4.240000   17.380000
  Q     11.150000    2.980000   17.790000
  Q     11.380000    3.800000   17.440000
  Q      9.050000    6.640000   20.530000
  Q     10.310000    7.440000   20.240000
  Q      9.830000    6.760000   20.180000
  Q      4.430000    9.590000   12.080000
  Q      3.490000    8.960000   11.010000
  Q      3.720000    9.170000   11.790000
  Q     15.260000    7.080000    6.440000
  Q     14.800000    5.650000    5.840000
  Q     14.700000    6.430000    6.200000
  Q     -0.610000   10.540000   14.980000
  Q      0.580000   10.680000   14.110000
  Q      0.130000   10.310000   14.690000
  Q     16.400000    4.140000    6.040000
  Q     16.210000    3.820000    4.550000
  Q     16.010000    4.130000    5.310000
  Q      7.020000    9.360000   19.110000
  Q      7.360000   10.820000   18.580000
  Q      7.500000    9.990000   18.830000
  Q      4.960000   12.720000    7.090000
  Q      3.470000   13.080000    6.650000
  Q      4.280000   12.800000    6.550000
  Q      8.990000   10.070000   15.490000
  Q      7.340000   10.340000   15.690000
  Q      8.190000   10.530000   15.550000
  Q      8.930000    8.250000   13.580000
  Q      7.460000    7.890000   13.860000
  Q      8.140000    8.010000   13.360000
  Q     15.410000   18.740000    5.950000
  Q     15.870000   17.300000    6.270000
  Q     15.810000   18.010000    5.770000
  Q     14.130000   20.250000   14.600000
  Q     14.920000   20.240000   15.830000
  Q     14.250000   20.420000   15.410000
  Q      6.480000    3.030000   13.590000
  Q      5.620000    2.540000   12.600000
  Q      5.730000    2.900000   13.310000
  Q     12.520000   17.250000   10.680000
  Q     11.980000   17.780000   12.040000
  Q     12.490000   17.750000   11.380000
  Q     14.310000    8.330000   20.370000
  Q     14.610000    9.450000   21.320000
  Q     14.120000    8.860000   20.950000
  Q     11.790000   16.850000    2.940000
  Q     12.740000   17.740000    2.060000
  Q     12.030000   17.560000    2.500000
  Q     11.000000    4.800000   14.330000
  Q     10.590000    3.930000   15.540000
  Q     10.690000    4.100000   14.710000
  Q     10.240000    4.610000    1.870000
  Q     10.300000    3.180000    2.610000
  Q     10.040000    3.990000    2.460000
  Q     12.900000    6.260000   13.810000
  Q     11.640000    6.500000   12.980000
  Q     12.100000    6.180000   13.610000
  Q      8.050000    3.810000    2.860000
  Q      7.020000    4.150000    3.910000
  Q      7.290000    4.110000    3.130000
  Q     19.040000    5.520000   13.480000
  Q     19.890000    4.260000   13.700000
  Q     19.280000    4.820000   13.900000
  Q     17.580000   19.210000    8.740000
  Q     18.170000   20.590000    9.160000
  Q     18.180000   19.810000    8.730000
  Q     17.920000    8.120000    4.150000
  Q     16.750000    7.220000    3.680000
  Q     17.120000    7.930000    3.940000
  Q      7.910000    5.780000   10.330000
  Q      8.270000    6.420000   11.650000
  Q      8.360000    5.870000   11.040000
  Q     15.000000   19.920000   12.250000
  Q     14.120000   18.680000   12.470000
  Q     14.640000   19.320000   12.710000
  Q      3.970000   13.000000    2.810000
  Q      2.430000   12.580000    2.730000
  Q      3.180000   12.850000    3.120000
  Q     14.930000   15.530000   20.340000
  Q     16.250000   14.930000   20.560000
  Q     15.430000   14.890000   20.480000
  Q     17.480000    5.700000   10.180000
  Q     17.880000    4.280000   10.460000
  Q     17.370000    4.890000   10.260000
  Q      1.720000    8.640000    9.440000
  Q      0.810000    9.590000   10.270000
  Q      1.510000    9.340000    9.880000
  Q     14.930000    8.220000   17.800000
  Q     13.760000    7.790000   16.870000
  Q     14.120000    8.110000   17.570000
  Q     20.300000    7.370000   12.640000
  Q     18.980000    7.630000   13.480000
  Q     19.460000    7.370000   12.810000
  Q      0.770000    7.360000   13.110000
  Q      0.210000    8.650000   13.660000
  Q      0.250000    8.010000   13.100000
  Q     18.990000   14.260000   12.650000
  Q     19.990000   13.660000   11.600000
  Q     19.270000   13.710000   12.040000
  Q     20.260000    9.070000   16.260000
  Q     20.020000    7.560000   16.760000
  Q     20.340000    8.380000   16.780000
  Q     13.230000   16.610000    5.530000
  Q     12.510000   17.950000    5.770000
  Q     12.690000   17.170000    5.940000
  Q      6.290000    7.990000    2.720000
  Q      5.310000    9.120000    2.660000
  Q      5.550000    8.330000    2.540000
  Q      5.530000    4.800000   13.210000
  Q      5.530000    5.910000   12.250000
  Q      5.620000    5.580000   13.030000
  Q      5.160000   19.170000    8.500000
  Q      6.330000   19.520000    7.530000
  Q      5.960000   19.410000    8.270000
  Q      9.420000   13.650000   12.920000
  Q      8.720000   15.060000   12.880000
  Q      9.350000   14.490000   12.710000
  Q     13.170000   16.020000   13.640000
  Q     13.780000   15.340000   14.870000
  Q     13.780000   15.740000   14.130000
  Q      3.490000   18.080000    7.400000
  Q      2.710000   18.860000    8.550000
  Q      2.950000   18.180000    8.110000
  Q      7.020000   20.590000   12.150000
  Q      7.070000   20.550000   13.720000
  Q      7.030000   20.220000   12.950000
  Q     10.620000   15.860000   13.180000
  Q     10.770000   17.000000   14.240000
  Q     11.030000   16.440000   13.670000
  Q      8.730000   15.710000   18.250000
  Q      9.820000   16.620000   18.650000
  Q      9.270000   16.070000   18.800000
  Q      8.490000   10.210000   20.670000
  Q      9.050000   10.330000   22.120000
  Q      8.600000   10.020000   21.510000
  Q     14.080000    8.350000    2.130000
  Q     13.700000    7.810000    0.770000
  Q     13.870000    7.780000    1.570000
  Q      6.100000   11.000000    4.750000
  Q      4.800000   11.010000    4.010000
  Q      5.590000   10.790000    4.140000
  Q     17.990000   13.770000    8.530000
  Q     18.580000   13.780000   10.010000
  Q     18.570000   13.690000    9.140000
  Q      7.270000   15.470000    2.170000
  Q      6.440000   16.910000    2.420000
  Q      7.030000   16.220000    2.600000
  Q     15.230000   15.660000   12.790000
  Q     16.320000   16.330000   12.020000
  Q     15.680000   15.780000   12.110000
  Q      9.220000    7.990000   16.230000
  Q      8.650000    8.980000   17.280000
  Q      9.240000    8.580000   16.840000
  Q      8.430000   15.200000   15.950000
  Q      6.880000   15.400000   16.430000
  Q      7.730000   15.250000   16.490000
  Q     20.860000    6.460000    8.420000
  Q     20.800000    7.840000    7.850000
  Q     20.520000    7.210000    8.290000
  Q      8.140000    5.890000   14.510000
  Q      8.430000    5.960000   16.100000
  Q      8.050000    6.170000   15.340000
  Q      2.130000    6.540000    9.260000
  Q      2.020000    6.720000    7.750000
  Q      1.800000    6.880000    8.560000
  Q      7.880000   18.170000   17.830000
  Q      8.510000   18.040000   16.460000
  Q      8.280000   18.450000   17.160000
  Q     12.240000    6.770000    8.250000
  Q     13.640000    6.290000    8.010000
  Q     12.910000    6.310000    8.410000
  Q     14.080000    6.030000   10.500000
  Q     15.580000    5.730000   10.670000
  Q     14.820000    6.030000   10.890000
  Q     12.830000    2.880000    6.500000
  Q     14.030000    2.880000    5.660000
  Q     13.530000    2.540000    6.190000
  Q     19.110000    8.730000   18.570000
  Q     17.930000    9.300000   19.280000
  Q     18.610000    8.830000   19.230000
  Q     10.340000   11.550000    1.360000
  Q     11.440000   11.180000    0.270000
  Q     10.900000   11.040000    0.950000
  Q      5.790000   12.530000    0.910000
  Q      6.390000   12.790000    2.380000
  Q      5.850000   12.920000    1.700000
  Q      1.790000    6.400000    5.260000
  Q      3.190000    6.180000    5.440000
  Q      2.380000    6.070000    5.640000
  Q      4.920000   14.650000   15.120000
  Q      4.830000   15.770000   16.270000
  Q      4.950000   15.420000   15.490000
  Q      5.610000   18.620000   12.210000
  Q      6.040000   17.980000   10.950000
  Q      5.570000   18.080000   11.580000
  Q     13.350000    7.100000    3.560000
  Q     13.310000    6.850000    4.900000
  Q     13.020000    7.230000    4.270000
  Q     14.200000    2.060000   11.540000
  Q     14.170000    2.160000   13.030000
  Q     14.020000    1.770000   12.320000

----------------------------
CARTESIAN COORDINATES (A.U.)
----------------------------
  NO LB      ZA    FRAG     MASS         X           Y           Z
   0 C     6.0000    0    12.011   23.734960   21.656261   22.393255
   1 H     1.0000    0     1.008   24.642029   23.338118   22.846789
   2 H     1.0000    0     1.008   25.095563   20.068892   22.412152
   3 C     6.0000    0    12.011   22.317666   22.015309   19.842124
   4 H     1.0000    0     1.008   21.221624   23.810549   20.049994
   5 H     1.0000    0     1.008   23.848344   22.431049   18.519316
   6 C     6.0000    0    12.011   20.560220   19.672049   19.142926
   7 H     1.0000    0     1.008   19.520871   18.953953   20.824782
   8 H     1.0000    0     1.008   21.637364   18.254754   18.235857
   9 C     6.0000    0    12.011   18.727186   20.427940   17.102022
  10 H     1.0000    0     1.008   19.709844   21.013755   15.401268
  11 H     1.0000    0     1.008   17.328789   21.826337   17.820117
  12 O     8.0000    0    15.999   17.290994   18.160268   16.516206
  13 H     1.0000    0     1.008   16.232747   17.536659   17.839015
  14 O     8.0000    0    15.999   21.901926   21.051549   24.339673
  15 H     1.0000    0     1.008   22.657816   21.259419   25.945940
  16 O     8.0000    0    15.999   29.196269   20.257864   19.955508
  17 H     1.0000    0     1.008   30.859228   19.672049   19.369693
  18 H     1.0000    0     1.008   29.706495   21.637364   21.051549
  19 O     8.0000    0    15.999   12.056453   15.495754   15.080015
  20 H     1.0000    0     1.008   10.714747   16.535104   14.305227
  21 H     1.0000    0     1.008   12.207631   16.213850   16.724076
  22 O     8.0000    0    15.999   12.793446   22.412152   21.221624
  23 H     1.0000    0     1.008   14.361919   22.979070   22.147590
  24 H     1.0000    0     1.008   12.491090   23.489296   19.804330
  25 O     8.0000    0    15.999   22.714508   22.827892   30.594666
  26 H     1.0000    0     1.008   22.412152   21.637364   31.974166
  27 H     1.0000    0     1.008   24.471953   22.393255   30.084440
  28 O     8.0000    0    15.999   20.654707   22.657816    9.694295
  29 H     1.0000    0     1.008   19.275207   21.429494    9.467528
  30 H     1.0000    0     1.008   20.068892   23.999522   10.658055
  31 O     8.0000    0    15.999   11.772994   28.704940   16.969741
  32 H     1.0000    0     1.008   11.810788   26.815214   16.591795
  33 H     1.0000    0     1.008   11.886377   29.385241   15.212295
  34 O     8.0000    0    15.999   10.865925   23.375912   16.516206
  35 H     1.0000    0     1.008    9.410836   22.393255   17.272097
  36 H     1.0000    0     1.008   11.961966   22.147590   15.665830
  37 O     8.0000    0    15.999   13.851693   20.957063   13.095802
  38 H     1.0000    0     1.008   12.472192   19.653152   12.812343
  39 H     1.0000    0     1.008   15.344576   19.974405   13.473747
  40 O     8.0000    0    15.999   30.594666   24.264084   24.094008
  41 H     1.0000    0     1.008   32.295420   24.150700   24.717618
  42 H     1.0000    0     1.008   30.670255   25.643584   22.922378
  43 O     8.0000    0    15.999   18.878364   28.251406   18.349241
  44 H     1.0000    0     1.008   18.651597   28.100228   20.125583
  45 H     1.0000    0     1.008   20.598015   28.818324   18.292549
  46 O     8.0000    0    15.999   20.484631   14.343021   14.172946
  47 H     1.0000    0     1.008   19.124028   13.171391   14.739864
  48 H     1.0000    0     1.008   19.747638   15.873700   14.702069
  49 O     8.0000    0    15.999   24.925488   27.060878   14.588686
  50 H     1.0000    0     1.008   25.643584   25.416817   14.872145
  51 H     1.0000    0     1.008   23.243631   26.758522   13.983973
  52 O     8.0000    0    15.999   24.415262   28.138022   19.577563
  53 H     1.0000    0     1.008   24.774310   27.911255   17.820117
  54 H     1.0000    0     1.008   26.021529   28.856118   20.049994
  55 O     8.0000    0    15.999   24.585337   22.733405    5.140055
  56 H     1.0000    0     1.008   23.810549   23.319220    6.689631
  57 H     1.0000    0     1.008   23.338118   21.901926    4.081808
  58 O     8.0000    0    15.999   27.306543   22.336563   14.985528
  59 H     1.0000    0     1.008   26.437269   20.994857   14.135151
  60 H     1.0000    0     1.008   27.797871   21.712953   16.648487
  61 O     8.0000    0    15.999   13.568234   11.980864   11.319460
  62 H     1.0000    0     1.008   13.738309   13.435953   12.491090
  63 H     1.0000    0     1.008   14.513097   12.415501    9.883268
  64 O     8.0000    0    15.999   29.347447   16.024878   23.092453
  65 H     1.0000    0     1.008   29.271858   17.404378   21.883029
  66 H     1.0000    0     1.008   28.893913   14.456405   22.223179
  67 O     8.0000    0    15.999   22.317666   19.067337   34.298529
  68 H     1.0000    0     1.008   23.753858   17.971296   34.015070
  69 H     1.0000    0     1.008   20.900371   18.103576   33.826098
  70 O     8.0000    0    15.999   16.856357   22.827892   24.547542
  71 H     1.0000    0     1.008   18.538213   22.204282   24.547542
  72 H     1.0000    0     1.008   16.232747   22.185385   26.153810
  73 O     8.0000    0    15.999   20.446837   16.327234   26.966392
  74 H     1.0000    0     1.008   21.807440   15.571343   27.892358
  75 H     1.0000    0     1.008   20.900371   17.423275   25.662481
  76 O     8.0000    0    15.999   22.563330   28.081330   30.254515
  77 H     1.0000    0     1.008   22.884583   26.304988   30.160029
  78 H     1.0000    0     1.008   22.015309   28.799426   28.648248
  79 O     8.0000    0    15.999    8.465973   18.613802   12.604473
  80 H     1.0000    0     1.008    7.369932   17.555556   11.584021
  81 H     1.0000    0     1.008    7.483315   19.898816   13.303672
  82 O     8.0000    0    15.999   14.796556   24.642029    8.239206
  83 H     1.0000    0     1.008   13.341467   25.605789    8.598254
  84 H     1.0000    0     1.008   15.174501   23.640474    9.713192
  85 O     8.0000    0    15.999    8.976199   21.297214   24.925488
  86 H     1.0000    0     1.008    8.182514   22.827892   25.322330
  87 H     1.0000    0     1.008   10.431288   21.901926   24.112905
  88 O     8.0000    0    15.999   13.417056   17.120919   20.125583
  89 H     1.0000    0     1.008   13.832795   16.478412   21.750748
  90 H     1.0000    0     1.008   12.906829   18.821672   20.484631
  91 O     8.0000    0    15.999   17.120919   19.483076    7.974644
  92 H     1.0000    0     1.008   17.234302   17.801220    7.502213
  93 H     1.0000    0     1.008   16.780768   20.598015    6.576247
  94 O     8.0000    0    15.999   27.665591   23.489296   28.119125
  95 H     1.0000    0     1.008   28.364789   24.075111   26.493960
  96 H     1.0000    0     1.008   28.270303   24.642029   29.423036
  97 O     8.0000    0    15.999   24.358570   19.256309   11.810788
  98 H     1.0000    0     1.008   24.528645   17.498864   11.319460
  99 H     1.0000    0     1.008   22.846789   20.087789   11.206076
 100 O     8.0000    0    15.999   19.161823   26.512858   13.473747
 101 H     1.0000    0     1.008   18.953953   26.796317   15.231193
 102 H     1.0000    0     1.008   18.689391   28.005741   12.604473
 103 O     8.0000    0    15.999   33.674920   18.651597   17.593350
 104 H     1.0000    0     1.008   35.243392   19.483076   16.950843
 105 H     1.0000    0     1.008   34.260735   16.799665   17.914604
 106 Q     0.6645    0     0.000   39.646454   17.876809   21.712953
 107 Q     0.6645    0     0.000   39.419687   16.383926   19.048439
 108 Q    -1.3290    0     0.000   39.287406   17.631145   20.144481
 109 Q     0.6645    0     0.000   19.294104   40.288961   16.402823
 110 Q     0.6645    0     0.000   19.653152   40.232269   19.313001
 111 Q    -1.3290    0     0.000   18.840570   40.194475   17.914604
 112 Q     0.6645    0     0.000   14.305227   30.292310   11.943069
 113 Q     0.6645    0     0.000   11.810788   29.007296   11.036001
 114 Q    -1.3290    0     0.000   12.698960   29.933262   11.999761
 115 Q     0.6645    0     0.000    9.373042    3.609377   14.796556
 116 Q     0.6645    0     0.000    7.899055    5.688076   15.439063
 117 Q    -1.3290    0     0.000    9.221864    5.026672   15.250090
 118 Q     0.6645    0     0.000   22.997967   31.860783   14.947734
 119 Q     0.6645    0     0.000   20.881474   33.259180   16.365028
 120 Q    -1.3290    0     0.000   22.166488   32.333214   16.251645
 121 Q     0.6645    0     0.000   16.308337   34.657577   17.423275
 122 Q     0.6645    0     0.000   18.122474   36.622892   17.196508
 123 Q    -1.3290    0     0.000   17.650042   35.205598   17.007535
 124 Q     0.6645    0     0.000   31.426146   15.779213   26.116015
 125 Q     0.6645    0     0.000   32.484392   13.757206   27.797871
 126 Q    -1.3290    0     0.000   32.446598   15.231193   27.136467
 127 Q     0.6645    0     0.000   22.960173   38.248057   20.862577
 128 Q     0.6645    0     0.000   23.111351   40.742495   22.223179
 129 Q    -1.3290    0     0.000   22.393255   39.533071   21.561775
 130 Q     0.6645    0     0.000   27.797871    4.497548   17.215405
 131 Q     0.6645    0     0.000   29.952159    5.612487   18.764981
 132 Q    -1.3290    0     0.000   28.440378    5.083363   18.519316
 133 Q     0.6645    0     0.000   31.690707   12.755651   34.676475
 134 Q     0.6645    0     0.000   30.292310   11.168281   32.748954
 135 Q    -1.3290    0     0.000   31.161584   12.415501   33.259180
 136 Q     0.6645    0     0.000   34.374118    6.122713   14.078460
 137 Q     0.6645    0     0.000   32.692262    8.314795   15.533549
 138 Q    -1.3290    0     0.000   33.108002    7.218754   14.343021
 139 Q     0.6645    0     0.000   24.264084   29.026193   32.881235
 140 Q     0.6645    0     0.000   26.890803   28.629351   34.260735
 141 Q    -1.3290    0     0.000   25.397919   29.139577   34.071762
 142 Q     0.6645    0     0.000    2.418849   25.662481   14.343021
 143 Q     0.6645    0     0.000    4.932185   26.437269   15.590241
 144 Q    -1.3290    0     0.000    3.930630   25.511303   14.720967
 145 Q     0.6645    0     0.000    8.900610   14.154049    8.125822
 146 Q     0.6645    0     0.000   10.166727   12.717857   10.525775
 147 Q    -1.3290    0     0.000    9.032891   13.379261    9.562014
 148 Q     0.6645    0     0.000   15.457960    5.385719   21.637364
 149 Q     0.6645    0     0.000   17.952398    3.684966   21.542878
 150 Q    -1.3290    0     0.000   16.572898    4.421959   20.938166
 151 Q     0.6645    0     0.000    6.292788   14.437508   28.875015
 152 Q     0.6645    0     0.000    5.858151   16.535104   30.840331
 153 Q    -1.3290    0     0.000    6.273891   15.098912   30.405693
 154 Q     0.6645    0     0.000   16.667385   13.058008    6.160507
 155 Q     0.6645    0     0.000   14.834350   11.092692    5.612487
 156 Q    -1.3290    0     0.000   15.250090   12.604473    5.877048
 157 Q     0.6645    0     0.000    5.971535   30.878125   16.856357
 158 Q     0.6645    0     0.000    8.106925   29.007296   17.498864
 159 Q    -1.3290    0     0.000    6.576247   29.498625   17.385480
 160 Q     0.6645    0     0.000    5.744767   30.103337   21.221624
 161 Q     0.6645    0     0.000    7.483315   31.860783   22.676714
 162 Q    -1.3290    0     0.000    6.254994   30.897022   22.506638
 163 Q     0.6645    0     0.000   16.875254   25.435714    2.607822
 164 Q     0.6645    0     0.000   16.818563   24.547542    5.574692
 165 Q    -1.3290    0     0.000   17.196508   24.547542    3.968425
 166 Q     0.6645    0     0.000    9.165172   35.281187   10.147829
 167 Q     0.6645    0     0.000   10.110035   32.956824   11.791891
 168 Q    -1.3290    0     0.000    9.089583   34.071762   11.243870
 169 Q     0.6645    0     0.000   20.749193   12.245425    2.154288
 170 Q     0.6645    0     0.000   20.881474   10.903720   -0.321253
 171 Q    -1.3290    0     0.000   20.900371   10.960412    1.228322
 172 Q     0.6645    0     0.000    6.084918   25.586892   28.572659
 173 Q     0.6645    0     0.000    8.295898   24.623132   30.330104
 174 Q    -1.3290    0     0.000    7.388829   24.736515   29.007296
 175 Q     0.6645    0     0.000   16.119364   24.415262   34.411913
 176 Q     0.6645    0     0.000   15.250090   23.338118   31.728502
 177 Q    -1.3290    0     0.000   15.080015   23.810549   33.296974
 178 Q     0.6645    0     0.000   12.415501    3.401507   20.182275
 179 Q     0.6645    0     0.000   10.431288    5.083363   18.764981
 180 Q    -1.3290    0     0.000   11.149384    4.365267   20.031097
 181 Q     0.6645    0     0.000   22.393255   20.673604   37.133119
 182 Q     0.6645    0     0.000   22.147590   23.640474   37.718934
 183 Q    -1.3290    0     0.000   22.525536   22.090899   37.964598
 184 Q     0.6645    0     0.000   19.898816   31.407248   11.111590
 185 Q     0.6645    0     0.000   18.859467   29.800981    8.957302
 186 Q    -1.3290    0     0.000   18.727186   30.689152   10.280110
 187 Q     0.6645    0     0.000   11.584021    5.253439   11.810788
 188 Q     0.6645    0     0.000   14.513097    6.084918   12.188734
 189 Q    -1.3290    0     0.000   13.076905    5.952637   11.413946
 190 Q     0.6645    0     0.000   28.893913   18.368138    7.275446
 191 Q     0.6645    0     0.000   26.701830   19.936611    5.933740
 192 Q    -1.3290    0     0.000   27.816769   18.783878    6.103815
 193 Q     0.6645    0     0.000   32.144242   30.878125   28.119125
 194 Q     0.6645    0     0.000   29.215166   30.840331   28.100228
 195 Q    -1.3290    0     0.000   30.689152   31.369454   28.383687
 196 Q     0.6645    0     0.000   16.289439   32.805646    5.744767
 197 Q     0.6645    0     0.000   18.576008   34.827653    5.272336
 198 Q    -1.3290    0     0.000   17.158713   34.222940    5.839254
 199 Q     0.6645    0     0.000   18.405933    5.499103   14.154049
 200 Q     0.6645    0     0.000   16.459515    4.913288   16.402823
 201 Q    -1.3290    0     0.000   17.007535    4.951082   14.853247
 202 Q     0.6645    0     0.000   22.903481   10.601364   36.037077
 203 Q     0.6645    0     0.000   25.397919   12.132042   35.111112
 204 Q    -1.3290    0     0.000   24.434159   11.206076   36.131564
 205 Q     0.6645    0     0.000   12.018658   13.473747   35.810310
 206 Q     0.6645    0     0.000   12.736754   13.643823   38.569310
 207 Q    -1.3290    0     0.000   12.113145   14.135151   37.208708
 208 Q     0.6645    0     0.000    5.555795   21.316111   29.630906
 209 Q     0.6645    0     0.000    3.118048   20.049994   29.763187
 210 Q    -1.3290    0     0.000    4.554240   20.276761   30.254515
 211 Q     0.6645    0     0.000   34.581988   24.226289   34.204043
 212 Q     0.6645    0     0.000   35.923694   26.286091   32.748954
 213 Q    -1.3290    0     0.000   34.676475   25.549097   33.259180
 214 Q     0.6645    0     0.000   29.914365   25.511303    6.632939
 215 Q     0.6645    0     0.000   30.084440   23.772755    9.108480
 216 Q    -1.3290    0     0.000   29.989954   25.152255    8.258103
 217 Q     0.6645    0     0.000   28.308097   23.961727   37.435475
 218 Q     0.6645    0     0.000   26.248296   22.090899   36.963043
 219 Q    -1.3290    0     0.000   27.533310   22.884583   36.566201
 220 Q     0.6645    0     0.000   14.418610   27.514413   -0.094486
 221 Q     0.6645    0     0.000   16.327234   29.687598    0.699199
 222 Q    -1.3290    0     0.000   15.628035   28.175817    0.736993
 223 Q     0.6645    0     0.000   36.301639   13.568234   17.990193
 224 Q     0.6645    0     0.000   35.583543   14.172946   20.881474
 225 Q    -1.3290    0     0.000   35.300084   13.813898   19.313001
 226 Q     0.6645    0     0.000   32.427700   16.176056   14.097357
 227 Q     0.6645    0     0.000   31.577324   15.835905   11.281665
 228 Q    -1.3290    0     0.000   31.709605   15.439063   12.869035
 229 Q     0.6645    0     0.000   16.459515   31.256070   19.653152
 230 Q     0.6645    0     0.000   13.624925   30.651358   18.746083
 231 Q    -1.3290    0     0.000   14.853247   31.482837   19.426385
 232 Q     0.6645    0     0.000    3.382610    4.856596   17.328789
[...]
 320   Q   :    0.175180282   -0.235242528    0.002511931
 321   Q   :   -0.295585849   -0.050061433   -0.088510259
 322   Q   :    0.122970547    0.276619800    0.083956844
 323   Q   :    0.257392043   -0.088865536    0.015047726
 324   Q   :   -0.206820200   -0.189417072    0.093794103
 325   Q   :   -0.052860463    0.283130042   -0.095226231
 326   Q   :   -0.032154371    0.267255393   -0.057377035
 327   Q   :    0.248005802   -0.148777789   -0.045866134
 328   Q   :   -0.217800618   -0.111841767    0.091115864
 329   Q   :   -0.030037066    0.184965768   -0.189264965
 330   Q   :    0.243674265   -0.006641864    0.135800791
 331   Q   :   -0.215646522   -0.178940598    0.063580843
 332   Q   :   -0.108284540   -0.248495299   -0.084265832
 333   Q   :    0.281650804    0.046240683    0.062830788
 334   Q   :   -0.162884121    0.206248045    0.025674165
 335   Q   :    0.166727760    0.145582084    0.177101002
 336   Q   :   -0.166466021    0.106882460   -0.218181460
 337   Q   :   -0.001869661   -0.254041674    0.048425879
 338   Q   :   -0.027733909    0.176534499   -0.230214862
 339   Q   :    0.206696244   -0.184754926    0.082696987
 340   Q   :   -0.181357007    0.017903838    0.154573253
 341   Q   :   -0.153476187    0.219003491    0.114576391
 342   Q   :   -0.101163622   -0.150353525   -0.223660237
 343   Q   :    0.253688855   -0.070417436    0.105911012
 344   Q   :   -0.165712157    0.154667271   -0.012109797
 345   Q   :    0.074635628   -0.196121569   -0.124432633
 346   Q   :    0.088349525    0.047490976    0.132721370
 347   Q   :    0.239439520    0.000267389    0.004478483
 348   Q   :   -0.161888604   -0.136719563    0.150925541
 349   Q   :   -0.084151863    0.152789066   -0.160111972
 350   Q   :    0.292966631   -0.073941485   -0.047230013
 351   Q   :   -0.087251021    0.330155305    0.100648779
 352   Q   :   -0.210358269   -0.249272555   -0.050957305
 353   Q   :    0.196382627    0.188209832    0.062574645
 354   Q   :   -0.007783086   -0.172867202   -0.200992827
 355   Q   :   -0.189627715   -0.009538801    0.142000431
 356   Q   :    0.060324360   -0.042005841    0.299479163
 357   Q   :   -0.116160830   -0.221910531   -0.143323359
 358   Q   :    0.045972688    0.258271378   -0.146056939
 359   Q   :   -0.193083524   -0.094159952   -0.113946670
 360   Q   :    0.105321945    0.179497374   -0.012988915
 361   Q   :    0.081897030   -0.084679703    0.129727615
 362   Q   :   -0.098494726    0.050332779    0.261935744
 363   Q   :    0.269599914   -0.002229553   -0.064543868
 364   Q   :   -0.170809954   -0.049001236   -0.192194965
 365   Q   :    0.126068004    0.276226348    0.005048746
 366   Q   :   -0.263856988   -0.020147277    0.023413315
 367   Q   :    0.148130484   -0.250916797   -0.031851241
 368   Q   :    0.073185923    0.216853837   -0.143158784
 369   Q   :    0.150232760   -0.188500035    0.128003031
 370   Q   :   -0.221630469   -0.025371404    0.015760960
 371   Q   :    0.077540852    0.064625961   -0.268416554
 372   Q   :    0.143847819    0.067435086    0.252267071
 373   Q   :   -0.214836898   -0.126887905    0.019371661
 374   Q   :    0.090061764   -0.114262006   -0.306537411
 375   Q   :    0.247035857    0.115986416    0.193674786
 376   Q   :   -0.337670732   -0.003677144    0.113857845
 377   Q   :    0.093524950    0.201233388   -0.193060330
 378   Q   :   -0.044982581    0.025731195    0.243989798
 379   Q   :   -0.048005483   -0.222361661   -0.068940625
 380   Q   :   -0.258319696    0.135886688    0.046624230
 381   Q   :    0.196977665    0.068604458   -0.173004849
 382   Q   :    0.059326099   -0.208890388    0.125323707
 383   Q   :    0.145129364   -0.117812961    0.227019161
 384   Q   :    0.011918607   -0.115757112   -0.262836028
 385   Q   :   -0.148979031    0.238812854    0.038419748
 386   Q   :   -0.227667773    0.018068005    0.114722228
 387   Q   :    0.064206072   -0.077651161   -0.241834586
 388   Q   :    0.163681198    0.051918402    0.127864282
 389   Q   :    0.046063108   -0.157357971    0.163154392
 390   Q   :    0.147578562    0.185220342   -0.126528871
 391   Q   :   -0.188719996   -0.014700128   -0.036018216
 392   Q   :   -0.180085062    0.027629964    0.166023015
 393   Q   :    0.224647657    0.124576989   -0.074348102
 394   Q   :   -0.033932081   -0.145470149   -0.091580773
 395   Q   :    0.238875918    0.056267513   -0.106880816
 396   Q   :   -0.223338453    0.111038327   -0.003767106
 397   Q   :   -0.016352268   -0.167584981    0.121976379
 398   Q   :   -0.160281607   -0.212932404   -0.069564953
 399   Q   :    0.271072366   -0.003113534   -0.004479170
 400   Q   :   -0.117634954    0.215675179    0.086914716
 401   Q   :    0.132144663   -0.241186107   -0.018574634
 402   Q   :    0.072480743    0.212028864    0.143611827
 403   Q   :   -0.205325274    0.024610281   -0.130099323
 404   Q   :    0.225314379    0.047084694   -0.162934232
 405   Q   :   -0.250358959   -0.020878687   -0.094596084
 406   Q   :    0.029725719   -0.009550359    0.258945716
 407   Q   :   -0.140832109   -0.002786268    0.212396737
 408   Q   :    0.298634375   -0.113138093   -0.021550762
 409   Q   :   -0.153819030    0.115002319   -0.197926972
 410   Q   :    0.224692216    0.117312931   -0.012280104
 411   Q   :   -0.049770778   -0.219048664    0.090961150
 412   Q   :   -0.171078308    0.096367088   -0.070503272
 413   Q   :   -0.261933999   -0.029934981    0.116451694
 414   Q   :    0.147433002    0.231055674    0.019986914
 415   Q   :    0.108115930   -0.207829041   -0.136659677
 416   Q   :    0.228507087    0.121994825    0.068679218
 417   Q   :   -0.057675410   -0.069788558   -0.280843745
 418   Q   :   -0.157255278   -0.053945309    0.199108759
 419   Q   :    0.152755363    0.174156027    0.058369046
 420   Q   :    0.028870614   -0.234870357   -0.115290930
 421   Q   :   -0.189879780    0.064284806    0.054713549
 422   Q   :   -0.271363503    0.103085638    0.098440109
 423   Q   :    0.155304167    0.144712045   -0.187796548
 424   Q   :    0.104438181   -0.248517519    0.106754212
 425   Q   :    0.141044744    0.003549246    0.240931308
 426   Q   :    0.081043008   -0.110881692   -0.262310679
 427   Q   :   -0.218615959    0.104234834    0.009166999
 428   Q   :   -0.172285810   -0.199713640    0.089634602
 429   Q   :   -0.057742081    0.243341273   -0.066470354
 430   Q   :    0.222558947   -0.039162842   -0.023180268
 431   Q   :    0.198715397   -0.018730164    0.161872772
 432   Q   :   -0.241230565    0.089387927    0.033700503
 433   Q   :    0.051520807   -0.076361591   -0.207184507
 434   Q   :    0.198034299   -0.115340234   -0.027629972
 435   Q   :   -0.234523552   -0.063704603    0.041514613
 436   Q   :    0.044912019    0.172289135   -0.013855527
 437   Q   :    0.247928802    0.081323293    0.077966339
 438   Q   :   -0.216458546   -0.028894365    0.168421712
 439   Q   :   -0.035224178   -0.043909972   -0.237733535
 440   Q   :   -0.144502256    0.227045956    0.059447801
 441   Q   :    0.013952230   -0.199993236    0.154819670
 442   Q   :    0.139017134   -0.027075438   -0.215452305
 443   Q   :   -0.033135312   -0.061125263   -0.281409195
 444   Q   :    0.257435190   -0.075215069    0.143529481
 445   Q   :   -0.225481845    0.146449409    0.142756402
 446   Q   :    0.291205667    0.038209298    0.084435249
 447   Q   :   -0.015910536   -0.140846070   -0.276403661
 448   Q   :   -0.281459544    0.088541579    0.205779253
 449   Q   :    0.006565537   -0.161259719   -0.208308825
 450   Q   :   -0.182373505    0.009643423    0.229539363
 451   Q   :    0.174932868    0.148660717   -0.024210923
 452   Q   :    0.095818468   -0.202378363   -0.233958189
 453   Q   :    0.181622893    0.194740488    0.112150343
 454   Q   :   -0.266622451    0.008962540    0.125875139
 455   Q   :   -0.060598786   -0.216793429    0.126500174
 456   Q   :    0.241364935    0.047050131   -0.147701736
 457   Q   :   -0.174459320    0.180123917    0.019195268
 458   Q   :    0.092911309    0.215770342   -0.106186642
 459   Q   :   -0.030796226   -0.046372963    0.266404919
 460   Q   :   -0.073067183   -0.178938788   -0.153269418
 461   Q   :    0.056984341    0.170149506   -0.161344390
 462   Q   :    0.091011810   -0.263386638    0.042996505
 463   Q   :   -0.147973504    0.082572571    0.121128717
 464   Q   :    0.288284146    0.024963270    0.060506354
 465   Q   :   -0.143899729    0.116107820   -0.201523640
 466   Q   :   -0.140573711   -0.135158463    0.138574330
 467   Q   :    0.241174950   -0.093883546   -0.068954199
 468   Q   :   -0.077980513    0.020763058    0.282755159
 469   Q   :   -0.179221864    0.061657498   -0.217797203
 470   Q   :   -0.067262170    0.223360898   -0.141592137
 471   Q   :    0.212144334   -0.178695947   -0.085153300
 472   Q   :   -0.144290740   -0.061557791    0.224130471
 473   Q   :   -0.211394872   -0.186754666    0.012908951
 474   Q   :   -0.020533318    0.229134097    0.138271321
 475   Q   :    0.238025733   -0.037040465   -0.156106049
 476   Q   :    0.279051189    0.050642804    0.074179438
 477   Q   :   -0.112939664   -0.258484068   -0.087581664
 478   Q   :   -0.165185420    0.204228100    0.005007420
 479   Q   :   -0.162862635   -0.012073812   -0.225860355
 480   Q   :   -0.038548662    0.197142868    0.211855608
 481   Q   :    0.191990536   -0.184072828   -0.000625029
 482   Q   :    0.125149271    0.211359367   -0.179387289
 483   Q   :   -0.154501670   -0.193999784   -0.086627963
 484   Q   :    0.032655932   -0.014695691    0.267306131
 485   Q   :    0.243518558    0.042416200   -0.110864041
 486   Q   :   -0.217389133   -0.086569716   -0.133564309
 487   Q   :   -0.035686537    0.046045532    0.247818534
 488   Q   :   -0.162890723    0.249136126   -0.054078900
 489   Q   :    0.311954327    0.032997330    0.023894797
 490   Q   :   -0.147492892   -0.276582096    0.034179356
 491   Q   :    0.042081224    0.280658563   -0.030876977
 492   Q   :    0.206937598   -0.226671909    0.071299656
 493   Q   :   -0.252255949   -0.066533475   -0.034781183
 494   Q   :    0.066850668   -0.215128652   -0.135444847
 495   Q   :   -0.251114684    0.085806524    0.127391173
 496   Q   :    0.175214070    0.129944192    0.017475142
 497   Q   :    0.268827707    0.030144104    0.071338375
 498   Q   :   -0.116515905   -0.111731555   -0.233859379
 499   Q   :   -0.149669429    0.084368739    0.164374189
 500   Q   :    0.283235395    0.002704573   -0.051136078
 501   Q   :   -0.124663922    0.070709600    0.211368188
 502   Q   :   -0.146693516   -0.070834985   -0.155216056
 503   Q   :    0.193433726   -0.228303082    0.018243897
 504   Q   :    0.001670777    0.198806306    0.189374414
 505   Q   :   -0.197131058    0.023044348   -0.214259540
 506   Q   :   -0.073810515    0.160153548    0.177433615
 507   Q   :    0.253918579   -0.004137481   -0.150891041
 508   Q   :   -0.175047640   -0.171620487   -0.028402399
 509   Q   :   -0.033682589    0.207621087   -0.177847409
 510   Q   :   -0.092925724   -0.221854998   -0.013067445
 511   Q   :    0.142019589    0.021641898    0.190069766
 512   Q   :    0.154517558   -0.147050323   -0.120445357
 513   Q   :   -0.065036101    0.302349346   -0.075186686
 514   Q   :   -0.085301805   -0.146747913    0.193558454
 515   Q   :    0.263081512   -0.096564808    0.071010527
 516   Q   :   -0.077934396    0.284235069    0.045456682
 517   Q   :   -0.189591452   -0.185848309   -0.130817651
 518   Q   :   -0.036858731   -0.298683453    0.044748028
 519   Q   :   -0.032369631    0.104721507   -0.248461909
 520   Q   :    0.075718739    0.205320154    0.214832004
 521   Q   :   -0.263966761   -0.076859402    0.057946133
 522   Q   :    0.118230780    0.035322774   -0.278421294
 523   Q   :    0.144492300    0.044421034    0.218612047
 524   Q   :    0.022411240   -0.240123477    0.068134430
 525   Q   :   -0.188821676    0.168366094    0.055881374
 526   Q   :    0.173308630    0.061945158   -0.121834658
 527   Q   :   -0.212488396    0.092357334   -0.168640504
 528   Q   :    0.004984056   -0.135145121    0.249360077
 529   Q   :    0.200674997    0.041715610   -0.083022727
 530   Q   :    0.147332346   -0.012270373   -0.179368743
 531   Q   :   -0.070992944    0.250824293    0.146997459
 532   Q   :   -0.087153072   -0.227976124    0.040442064
 533   Q   :    0.001330982    0.125298302   -0.231857666
 534   Q   :    0.019196768    0.135352537    0.262962525
 535   Q   :   -0.023101657   -0.259774660   -0.028025891
 536   Q   :   -0.127776850   -0.169824592   -0.146215806
 537   Q   :   -0.081137565    0.175778234    0.194940986
 538   Q   :    0.214499273    0.001696521   -0.048815121
 539   Q   :   -0.165185275   -0.108934239   -0.184764729
 540   Q   :    0.216595868    0.218217023   -0.081281159
 541   Q   :   -0.058676914   -0.104885460    0.269136459
 542   Q   :   -0.018904828    0.077174167   -0.252868644
 543   Q   :    0.185174931    0.134574959    0.230384556
 544   Q   :   -0.161728707   -0.208478536    0.028886021
 545   Q   :    0.069222501    0.204341884    0.188585879
 546   Q   :   -0.066644724    0.028004292   -0.310176895
 547   Q   :   -0.006697298   -0.241009040    0.105759271
 548   Q   :    0.179484846    0.088389368    0.234729320
 549   Q   :   -0.288890016    0.082194686   -0.040660782
 550   Q   :    0.112473075   -0.171701025   -0.187231585
 551   Q   :   -0.194838196    0.036959995   -0.193169587
 552   Q   :   -0.004048478    0.034262430    0.258126014
 553   Q   :    0.191386713   -0.067308717   -0.063004975
 554   Q   :    0.057625219   -0.206650762   -0.129697948
 555   Q   :   -0.159194802    0.173749180   -0.061203624
 556   Q   :    0.091030355    0.031354835    0.196080074
 557   Q   :   -0.141948092   -0.034404878    0.250042519
 558   Q   :    0.209240063    0.181509926   -0.014811700
 559   Q   :   -0.062947027   -0.148705233   -0.238585582
 560   Q   :   -0.016231389   -0.196896124   -0.207536133
 561   Q   :   -0.209831783    0.127112711    0.134453204
 562   Q   :    0.225863183    0.059606797    0.073023032
 563   Q   :    0.205368526   -0.012172301   -0.171463595
 564   Q   :   -0.269961158    0.054960123   -0.027745405
 565   Q   :    0.060707769   -0.046735807    0.195559578
 566   Q   :    0.132829364   -0.261796197    0.045170639
 567   Q   :    0.122447855    0.228286033   -0.162831684
 568   Q   :   -0.246615818    0.031854414    0.101714092
 569   Q   :    0.045526626   -0.084919239   -0.247626191
 570   Q   :    0.129058892   -0.053800839    0.214413416
 571   Q   :   -0.168454808    0.137932953    0.015264037
 572   Q   :    0.115650342   -0.108249252    0.211482037
 573   Q   :    0.085395459   -0.056249627   -0.255736380
 574   Q   :   -0.211006623    0.165745048    0.031673522
 575   Q   :   -0.155786109   -0.121425598    0.240952485
 576   Q   :    0.065318524   -0.162042147   -0.227063682
 577   Q   :    0.087097265    0.280864640   -0.008169367
 578   Q   :   -0.222955804    0.155542421   -0.060738209
 579   Q   :    0.253580446    0.000052381   -0.139217391
 580   Q   :   -0.020793210   -0.155881951    0.208301105
 581   Q   :   -0.252414153   -0.003807976   -0.144559424
 582   Q   :    0.252357106   -0.093008189   -0.086953697
 583   Q   :   -0.007605074    0.089703381    0.228394223
 584   Q   :   -0.234289113    0.134036750    0.093185826
 585   Q   :    0.187821650    0.155546409   -0.219816074
 586   Q   :    0.047758604   -0.294991494    0.121321494
 587   Q   :    0.158300095   -0.021977728   -0.242454156
 588   Q   :   -0.239215794    0.173985365    0.001718563
 589   Q   :    0.084951278   -0.153662275    0.248589502
 590   Q   :   -0.163894297    0.164767207    0.117860033
 591   Q   :    0.164131449    0.058286068   -0.207253865
 592   Q   :    0.001101080   -0.229883191    0.079352843
 593   Q   :   -0.007213960   -0.123940074   -0.241642812
 594   Q   :    0.166984050   -0.043876082    0.192927573
 595   Q   :   -0.154583618    0.168569456    0.041902476
 596   Q   :   -0.258388777    0.165424643   -0.188255282
 597   Q   :    0.247710717    0.042403328   -0.078650781
 598   Q   :   -0.001694016   -0.217968723    0.262047783
 599   Q   :   -0.003184727   -0.251023544   -0.115242769
 600   Q   :   -0.033632320    0.105780288    0.258918868
 601   Q   :    0.033666633    0.154632706   -0.145568266
 602   Q   :    0.021469702    0.193946819    0.215646186
 603   Q   :    0.203626005   -0.029625073   -0.256077085
 604   Q   :   -0.230455424   -0.158795269    0.035912990
 605   Q   :    0.148051164   -0.071200160   -0.273558226
 606   Q   :    0.123379360   -0.170842425    0.233402017
 607   Q   :   -0.270050249    0.240042564    0.038686152
 608   Q   :    0.059932231    0.109078609   -0.234862880
 609   Q   :    0.067342104    0.158400670    0.251541410
 610   Q   :   -0.118562114   -0.276766464   -0.012949900

Difference to translation invariance:
           :    0.0002833955    0.0002858335   -0.0004604668

Difference to rotation invariance:
           :   -0.0161646324    0.0133808968    0.0023973268

Norm of the cartesian gradient     ...    6.1264291076
RMS gradient                       ...    0.1432128104
MAX gradient                       ...    0.3376707324

-------
TIMINGS
-------

Total SCF gradient time            ...      195.768 sec

One electron gradient       ....      24.872 sec  ( 12.7%)
RI-J Coulomb gradient       ....      10.482 sec  (  5.4%)
COSX gradient               ....     121.742 sec  ( 62.2%)
XC gradient                 ....      16.022 sec  (  8.2%)

Maximum memory used throughout the entire SCFGRAD-calculation: 792.7 MB

                            ***************************************
                            *     ORCA property calculations      *
                            ***************************************

                                    ---------------------
                                    Active property flags
                                    ---------------------
   (+) Dipole Moment


------------------------------------------------------------------------------
                       ORCA ELECTRIC PROPERTIES CALCULATION
------------------------------------------------------------------------------

Dipole Moment Calculation                       ... on
Quadrupole Moment Calculation                   ... off
Polarizability Calculation                      ... off
GBWName                                         ... final036.orca.gbw
Electron density                                ... final036.orca.scfp
The origin for moment calculation is the CENTER OF MASS  = (20.043621, 21.409533 18.545038)

-------------
DIPOLE MOMENT
-------------
                                X             Y             Z
Electronic contribution:     -2.22555      -1.87007       0.46351
Nuclear contribution   :     23.33816       5.90531     -17.90847
                        -----------------------------------------
Total Dipole Moment    :     21.11262       4.03524     -17.44496
                        -----------------------------------------
Magnitude (a.u.)       :     27.68307
Magnitude (Debye)      :     70.36477



--------------------
Rotational spectrum 
--------------------
 
Rotational constants in cm-1:     0.001948     0.001358     0.001097 
Rotational constants in MHz :    58.401713    40.721197    32.884855 

 Dipole components along the rotational axes: 
x,y,z [a.u.] :    -0.694387    27.475253     3.313715 
x,y,z [Debye]:    -1.764992    69.836542     8.422793 

 

Timings for individual modules:

Sum of individual times         ...      840.040 sec (=  14.001 min)
GTO integral calculation        ...       13.119 sec (=   0.219 min)   1.6 %
SCF iterations                  ...      626.604 sec (=  10.443 min)  74.6 %
SCF Gradient evaluation         ...      200.317 sec (=   3.339 min)  23.8 %
                             ****ORCA TERMINATED NORMALLY****
TOTAL RUN TIME: 0 days 0 hours 14 minutes 7 seconds 973 msec
