
                                 *****************
                                 * O   R   C   A *
                                 *****************

                                            #,                                       
                                            ###                                      
                                            ####                                     
                                            #####                                    
                                            ######                                   
                                           ########,                                 
                                     ,,################,,,,,                         
                               ,,#################################,,                 
                          ,,##########################################,,             
                       ,#########################################, ''#####,          
                    ,#############################################,,   '####,        
                  ,##################################################,,,,####,       
                ,###########''''           ''''###############################       
              ,#####''   ,,,,##########,,,,          '''####'''          '####       
            ,##' ,,,,###########################,,,                        '##       
           ' ,,###''''                  '''############,,,                           
         ,,##''                                '''############,,,,        ,,,,,,###''
      ,#''                                            '''#######################'''  
     '                                                          ''''####''''         
             ,#######,   #######,   ,#######,      ##                                
            ,#'     '#,  ##    ##  ,#'     '#,    #''#        ######   ,####,        
            ##       ##  ##   ,#'  ##            #'  '#       #        #'  '#        
            ##       ##  #######   ##           ,######,      #####,   #    #        
            '#,     ,#'  ##    ##  '#,     ,#' ,#      #,         ##   #,  ,#        
             '#######'   ##     ##  '#######'  #'      '#     #####' # '####'        



                  #######################################################
                  #                        -***-                        #
                  #          Department of theory and spectroscopy      #
                  #    Directorship and core code : Frank Neese         #
                  #        Max Planck Institute fuer Kohlenforschung    #
                  #                Kaiser Wilhelm Platz 1               #
                  #                 D-45470 Muelheim/Ruhr               #
                  #                      Germany                        #
                  #                                                     #
                  #                  All rights reserved                #
                  #                        -***-                        #
                  #######################################################


                         Program Version 5.0.3 -  RELEASE  -


 With contributions from (in alphabetic order):
   Daniel Aravena         : Magnetic Suceptibility
   Michael Atanasov       : Ab Initio Ligand Field Theory (pilot matlab implementation)
   Alexander A. Auer      : GIAO ZORA, VPT2 properties, NMR spectrum
   Ute Becker             : Parallelization
   Giovanni Bistoni       : ED, misc. LED, open-shell LED, HFLD
   Martin Brehm           : Molecular dynamics
   Dmytro Bykov           : SCF Hessian
   Vijay G. Chilkuri      : MRCI spin determinant printing, contributions to CSF-ICE
   Dipayan Datta          : RHF DLPNO-CCSD density
   Achintya Kumar Dutta   : EOM-CC, STEOM-CC
   Dmitry Ganyushin       : Spin-Orbit,Spin-Spin,Magnetic field MRCI
   Miquel Garcia          : C-PCM and meta-GGA Hessian, CC/C-PCM, Gaussian charge scheme
   Yang Guo               : DLPNO-NEVPT2, F12-NEVPT2, CIM, IAO-localization
   Andreas Hansen         : Spin unrestricted coupled pair/coupled cluster methods
   Benjamin Helmich-Paris : MC-RPA, TRAH-SCF, COSX integrals
   Lee Huntington         : MR-EOM, pCC
   Robert Izsak           : Overlap fitted RIJCOSX, COSX-SCS-MP3, EOM
   Marcus Kettner         : VPT2
   Christian Kollmar      : KDIIS, OOCD, Brueckner-CCSD(T), CCSD density, CASPT2, CASPT2-K
   Simone Kossmann        : Meta GGA functionals, TD-DFT gradient, OOMP2, MP2 Hessian
   Martin Krupicka        : Initial AUTO-CI
   Lucas Lang             : DCDCAS
   Marvin Lechner         : AUTO-CI (C++ implementation), FIC-MRCC
   Dagmar Lenk            : GEPOL surface, SMD
   Dimitrios Liakos       : Extrapolation schemes; Compound Job, initial MDCI parallelization
   Dimitrios Manganas     : Further ROCIS development; embedding schemes
   Dimitrios Pantazis     : SARC Basis sets
   Anastasios Papadopoulos: AUTO-CI, single reference methods and gradients
   Taras Petrenko         : DFT Hessian,TD-DFT gradient, ASA, ECA, R-Raman, ABS, FL, XAS/XES, NRVS
   Peter Pinski           : DLPNO-MP2, DLPNO-MP2 Gradient
   Christoph Reimann      : Effective Core Potentials
   Marius Retegan         : Local ZFS, SOC
   Christoph Riplinger    : Optimizer, TS searches, QM/MM, DLPNO-CCSD(T), (RO)-DLPNO pert. Triples
   Tobias Risthaus        : Range-separated hybrids, TD-DFT gradient, RPA, STAB
   Michael Roemelt        : Original ROCIS implementation
   Masaaki Saitow         : Open-shell DLPNO-CCSD energy and density
   Barbara Sandhoefer     : DKH picture change effects
   Avijit Sen             : IP-ROCIS
   Kantharuban Sivalingam : CASSCF convergence, NEVPT2, FIC-MRCI
   Bernardo de Souza      : ESD, SOC TD-DFT
   Georgi Stoychev        : AutoAux, RI-MP2 NMR, DLPNO-MP2 response
   Willem Van den Heuvel  : Paramagnetic NMR
   Boris Wezisla          : Elementary symmetry handling
   Frank Wennmohs         : Technical directorship


 We gratefully acknowledge several colleagues who have allowed us to
 interface, adapt or use parts of their codes:
   Stefan Grimme, W. Hujo, H. Kruse, P. Pracht,  : VdW corrections, initial TS optimization,
                  C. Bannwarth, S. Ehlert          DFT functionals, gCP, sTDA/sTD-DF
   Ed Valeev, F. Pavosevic, A. Kumar             : LibInt (2-el integral package), F12 methods
   Garnet Chan, S. Sharma, J. Yang, R. Olivares  : DMRG
   Ulf Ekstrom                                   : XCFun DFT Library
   Mihaly Kallay                                 : mrcc  (arbitrary order and MRCC methods)
   Jiri Pittner, Ondrej Demel                    : Mk-CCSD
   Frank Weinhold                                : gennbo (NPA and NBO analysis)
   Christopher J. Cramer and Donald G. Truhlar   : smd solvation model
   Lars Goerigk                                  : TD-DFT with DH, B97 family of functionals
   V. Asgeirsson, H. Jonsson                     : NEB implementation
   FAccTs GmbH                                   : IRC, NEB, NEB-TS, DLPNO-Multilevel, CI-OPT
                                                   MM, QMMM, 2- and 3-layer-ONIOM, Crystal-QMMM,
                                                   LR-CPCM, SF, NACMEs, symmetry and pop. for TD-DFT,
                                                   nearIR, NL-DFT gradient (VV10), updates on ESD,
                                                   ML-optimized integration grids
   S Lehtola, MJT Oliveira, MAL Marques          : LibXC Library
   Liviu Ungur et al                             : ANISO software


 Your calculation uses the libint2 library for the computation of 2-el integrals
 For citations please refer to: http://libint.valeyev.net

 Your ORCA version has been built with support for libXC version: 5.1.0
 For citations please refer to: https://tddft.org/programs/libxc/

 This ORCA versions uses:
   CBLAS   interface :  Fast vector & matrix operations
   LAPACKE interface :  Fast linear algebra routines
   SCALAPACK package :  Parallel linear algebra routines
   Shared memory     :  Shared parallel matrices
   BLAS/LAPACK       :  OpenBLAS 0.3.15  USE64BITINT DYNAMIC_ARCH NO_AFFINITY SkylakeX SINGLE_THREADED
        Core in use  :  SkylakeX
   Copyright (c) 2011-2014, The OpenBLAS Project


================================================================================

----- Orbital basis set information -----
Your calculation utilizes the basis: def2-SVP
   F. Weigend and R. Ahlrichs, Phys. Chem. Chem. Phys. 7, 3297 (2005).

The basis set includes element-specific modifications.

Your calculation utilizes the basis: aug-cc-pVTZ 
    H, B-Ne : Obtained from the ccRepo (grant-hill.group.shef.ac.uk/ccrepo) Feb. 2017
              R. A. Kendall, T. H. Dunning, Jr., R. J. Harrison, J. Chem. Phys. 96, 6796 (1992)
         He : Obtained from the ccRepo (grant-hill.group.shef.ac.uk/ccrepo) Feb. 2017
              D. E. Woon, T. H. Dunning, Jr., J. Chem. Phys. 100, 2975 (1994)
  Li-Be, Na : Obtained from the ccRepo (grant-hill.group.shef.ac.uk/ccrepo) Feb. 2017
              B. P. Prascher, D. E. Woon, K. A. Peterson, T. H. Dunning, Jr., A. K. Wilson, Theor. Chem. Acc. 128, 69 (2011)
         Mg : Obtained from the Peterson Research Group Website (tyr0.chem.wsu.edu/~kipeters) Feb. 2017
              B. P. Prascher, D. E. Woon, K. A. Peterson, T. H. Dunning, Jr., A. K. Wilson, Theor. Chem. Acc. 128, 69 (2011)
      Al-Ar : Obtained from the ccRepo (grant-hill.group.shef.ac.uk/ccrepo) Feb. 2017
              D. E. Woon, T. H. Dunning, Jr., J. Chem. Phys. 98, 1358 (1993)
      Sc-Zn : Obtained from the ccRepo (grant-hill.group.shef.ac.uk/ccrepo) Feb. 2017
              N. B. Balabanov, K. A. Peterson, J. Chem. Phys. 123, 064107 (2005)
              N. B. Balabanov, K. A. Peterson, J. Chem. Phys. 125, 074110 (2006)
      Ga-Kr : Obtained from the ccRepo (grant-hill.group.shef.ac.uk/ccrepo) Feb. 2017
              A. K. Wilson, D. E. Woon, K. A. Peterson, T. H. Dunning, Jr., J. Chem. Phys. 110, 7667 (1999)
     Ag, Au : Obtained from the Peterson Research Group Website (tyr0.chem.wsu.edu/~kipeters) Feb. 2017
              K. A. Peterson, C. Puzzarini, Theor. Chem. Acc. 114, 283 (2005)

Your calculation utilizes the basis: cc-pVTZ 
       H, B-Ne : Obtained from the ccRepo (grant-hill.group.shef.ac.uk/ccrepo) Feb. 2017
                 T. H. Dunning, Jr., J. Chem. Phys. 90, 1007 (1989)
            He : Obtained from the ccRepo (grant-hill.group.shef.ac.uk/ccrepo) Feb. 2017
                 D. E. Woon, T. H. Dunning, Jr., J. Chem. Phys. 100, 2975 (1994)
  Li-Be, Na-Mg : Obtained from the ccRepo (grant-hill.group.shef.ac.uk/ccrepo) Feb. 2017
                 B. P. Prascher, D. E. Woon, K. A. Peterson, T. H. Dunning, Jr., A. K. Wilson, Theor. Chem. Acc. 128, 69 (2011)
         Al-Ar : Obtained from the ccRepo (grant-hill.group.shef.ac.uk/ccrepo) Feb. 2017
                 D. E. Woon, T. H. Dunning, Jr., J. Chem. Phys. 98, 1358 (1993)
            Ca : Obtained from the Peterson Research Group Website (tyr0.chem.wsu.edu/~kipeters) Feb. 2017
                 J. Koput, K. A. Peterson, J. Phys. Chem. 106, 9595 (2002)
         Sc-Zn : Obtained from the ccRepo (grant-hill.group.shef.ac.uk/ccrepo) Feb. 2017
                 N. B. Balabanov, K. A. Peterson, J. Chem. Phys. 123, 064107 (2005)
                 N. B. Balabanov, K. A. Peterson, J. Chem. Phys. 125, 074110 (2006)
         Ga-Kr : Obtained from the ccRepo (grant-hill.group.shef.ac.uk/ccrepo) Feb. 2017
                 A. K. Wilson, D. E. Woon, K. A. Peterson, T. H. Dunning, Jr., J. Chem. Phys. 110, 7667 (1999)
             Y : Obtained from the ccRepo (grant-hill.group.shef.ac.uk/ccrepo) Feb. 2017
                 K. A. Peterson, D. Figgen, M. Dolg, H. Stoll, J. Chem. Phys. 126, 124101 (2007)
        Ag, Au : Obtained from the Peterson Research Group Website (tyr0.chem.wsu.edu/~kipeters) Feb. 2017
                 K. A. Peterson, C. Puzzarini, Theor. Chem. Acc. 114, 283 (2005)

----- AuxJ basis set information -----
Your calculation utilizes the auxiliary basis: def2/J
   F. Weigend, Phys. Chem. Chem. Phys. 8, 1057 (2006).

================================================================================
                                        WARNINGS
                       Please study these warnings very carefully!
================================================================================

WARNING: The globally-selected AuxJ basis set is optimized for use with ECPs
         Make sure a suitable alternative is explicitly given all heavy elements (Z>36)

INFO   : the flag for use of the SHARK integral package has been found!

================================================================================
                                       INPUT FILE
================================================================================
NAME = final013.orca.inp
|  1> ! NoMOPrint PrintBasis #MINIPRINT SMALLPRINT LARGEPRINT
|  2> ! ALLPOP XYZFILE
|  3> #! BP86 3-21G   TightSCF
|  4> ! ENGRAD
|  5> ! B3LYP NormalPNO PModel #DecontractAux
|  6> #! VerySlowConv 
|  7>  %maxcore 5000
|  8>  %scf  maxiter   500  end 
|  9> 
| 10> %pal
| 11>     nprocs 32
| 12> end
| 13> 
| 14> %basis
| 15>     NewGTO O    # New basis for oxygen
| 16>         "aug-cc-pVTZ"
| 17>     end
| 18>     NewGTO C    # New basis for carbon
| 19>         "aug-cc-pVTZ"
| 20>     end
| 21>     NewGTO H    # New basis for hydrogen
| 22>         "cc-pVTZ"
| 23>     end
| 24> end
| 25> 
| 26> * xyz 0   1
| 27>   C  11.79  10.27  12.37  #1
| 28>   H  11.56  10.99  13.2  #2
| 29>   H  12.81  10.11  12.18  #3
| 30>   C  10.94  10.79  11.12  #4
| 31>   H  10.98  9.91  10.43  #5
| 32>   H  9.95  10.84  11.42  #6
| 33>   C  11.44  12.11  10.51  #7
| 34>   H  12.38  11.93  10.14  #8
| 35>   H  11.68  12.87  11.19  #9
| 36>   C  10.69  12.62  9.25  #10
| 37>   H  10.3  11.77  8.67  #11
| 38>   H  11.25  13.32  8.64  #12
| 39>   O  9.48  13.34  9.73  #13
| 40>   H  9.03  13.57  8.92  #14
| 41>   O  11.35  9.02  12.95  #15
| 42>   H  11.29  8.27  12.32  #16
| 43>   O  13.12  11.88  15.79  #17
| 44>   H  12.83  12.58  15.18  #18
| 45>   H  12.39  11.79  16.43  #19
| 46>   O  14.81  11.67  11.17  #20
| 47>   H  14.76  11.78  10.24  #21
| 48>   H  14.43  12.54  11.51  #22
| 49>   O  14.27  14.42  10.68  #23
| 50>   H  14.97  14.6  10.05  #24
| 51>   H  13.43  14.64  10.27  #25
| 52>   O  7.98  11.16  7.25  #26
| 53>   H  8.41  10.32  7.49  #27
| 54>   H  7.3  11.31  7.91  #28
| 55>   O  9.66  7.75  10.63  #29
| 56>   H  8.99  7.61  11.32  #30
| 57>   H  10.14  6.98  10.78  #31
| 58>   O  7.32  10.45  13.02  #32
| 59>   H  7.37  10.55  13.99  #33
| 60>   H  7.66  9.6  12.8  #34
| 61>   O  12.14  16.21  9.58  #35
| 62>   H  11.24  16.25  9.33  #36
| 63>   H  12.05  16.57  10.53  #37
| 64>   O  11.88  6.18  11.6  #38
| 65>   H  11.86  5.61  10.85  #39
| 66>   H  12.76  6.51  11.69  #40
| 67>   O  9.99  16.04  8.05  #41
| 68>   H  9.21  15.85  8.58  #42
| 69>   H  9.66  15.89  7.12  #43
| 70>   O  8.96  8.35  8.06  #44
| 71>   H  9.27  8.2  8.98  #45
| 72>   H  8.15  7.8  8  #46
| 73>   O  15.65  12.95  17.05  #47
| 74>   H  16.2  13.33  16.35  #48
| 75>   H  14.76  12.82  16.67  #49
| 76>   O  12.14  13.45  6.38  #50
| 77>   H  11.54  13.56  5.64  #51
| 78>   H  12.47  14.37  6.55  #52
| 79>   O  8.13  12.96  11.99  #53
| 80>   H  7.89  12.03  12.04  #54
| 81>   H  8.47  13.15  11.06  #55
| 82>   O  7.29  15.8  9.26  #56
| 83>   H  6.9  16.59  9.71  #57
| 84>   H  6.69  15.68  8.52  #58
| 85>   O  4.53  11.11  12.36  #59
| 86>   H  3.9  10.93  11.64  #60
| 87>   H  5.39  10.88  12.2  #61
| 88>   O  10.49  5.4  13.65  #62
| 89>   H  11.19  5.65  12.97  #63
| 90>   H  10.02  4.58  13.55  #64
| 91>   O  16.48  15.96  12.38  #65
| 92>   H  17.28  15.93  11.83  #66
| 93>   H  15.72  15.65  11.88  #67
| 94>   O  9.53  9.23  15.04  #68
| 95>   H  9.92  9.32  14.13  #69
| 96>   H  8.77  9.82  14.97  #70
| 97>   O  14.46  7.33  11.26  #71
| 98>   H  14.76  8.06  11.87  #72
| 99>   H  14.46  7.67  10.31  #73
|100>   O  17.65  11.56  11.08  #74
|101>   H  16.69  11.51  11.23  #75
|102>   H  17.66  11.77  10.19  #76
|103>   O  16.1  15.58  8.68  #77
|104>   H  16.94  15.88  9.03  #78
|105>   H  16.2  15.03  7.85  #79
|106>   O  15.12  9.45  12.72  #80
|107>   H  14.97  10.31  12.24  #81
|108>   H  14.68  9.42  13.56  #82
|109>   O  6.56  11.02  9.6  #83
|110>   H  5.92  10.23  9.58  #84
|111>   H  7.28  10.64  10.06  #85
|112>   O  12.2  10.94  7.04  #86
|113>   H  12.07  11.89  6.84  #87
|114>   H  12.96  11.07  7.68  #88
|115>   O  12.19  14.62  15.2  #89
|116>   H  11.85  14.83  14.28  #90
|117>   H  12.88  15.28  15.28  #91
|118>   O  14.93  11.73  8.47  #92
|119>   H  15.04  12.29  7.7  #93
|120>   H  15.25  10.92  8.14  #94
|121>   O  5.39  9.96  6.48  #95
|122>   H  5.18  10.09  5.48  #96
|123>   H  6.29  10.27  6.66  #97
|124>   O  7.79  7.73  12.75  #98
|125>   H  7.87  7.45  13.67  #99
|126>   H  6.83  7.9  12.77  #100
|127>   O  6.51  12.93  5.72  #101
|128>   H  6.88  13.08  4.84  #102
|129>   H  7.33  12.68  6.17  #103
|130>   O  13.47  8.79  15.23  #104
|131>   H  12.67  8.43  14.84  #105
|132>   H  13.19  9.63  15.53  #106
|133>   O  8.68  11.04  3.93  #107
|134>   H  8.12  11.03  4.73  #108
|135>   H  9.12  10.18  3.93  #109
|136>   O  7.45  10.98  15.6  #110
|137>   H  6.63  10.87  16.14  #111
|138>   H  7.92  11.68  16.12  #112
|139>   O  12.97  15.83  6.92  #113
|140>   H  12.65  15.85  7.85  #114
|141>   H  13.83  16.21  6.86  #115
|142>   O  10.33  11.12  16.97  #116
|143>   H  10.32  10.31  16.47  #117
|144>   H  10.16  11.88  16.37  #118
|145>   Q  0.6645  17.03$  3.11$  14.08$
|146>   Q  0.6645  17.13$  4.27$  15.13$
|147>   Q  -1.3290  17.37$  3.58$  14.68$
|148>   Q  0.6645  6.63$  5.85$  14.71$
|149>   Q  0.6645  6.13$  6.67$  15.84$
|150>   Q  -1.3290  6.73$  6.31$  15.38$
|151>   Q  0.6645  10.77$  15.92$  18.01$
|152>   Q  0.6645  11.34$  14.92$  16.94$
|153>   Q  -1.3290  10.82$  15.2$  17.55$
|154>   Q  0.6645  6.27$  13.57$  2.4$
|155>   Q  0.6645  7.26$  14.71$  2.24$
|156>   Q  -1.3290  6.89$  14.05$  2.66$
|157>   Q  0.6645  16.32$  17.84$  2.52$
|158>   Q  0.6645  15.82$  17.32$  3.89$
|159>   Q  -1.3290  16.38$  17.64$  3.35$
|160>   Q  0.6645  20.42$  15.41$  8.62$
|161>   Q  0.6645  21.38$  14.28$  8.38$
|162>   Q  -1.3290  20.65$  14.7$  8.26$
|163>   Q  0.6645  10.69$  2.09$  9.96$
|164>   Q  0.6645  11.45$  0.6$  9.78$
|165>   Q  -1.3290  11.07$  1.29$  10.17$
|166>   Q  0.6645  10.87$  17.14$  19.81$
|167>   Q  0.6645  10.38$  18.11$  18.67$
|168>   Q  -1.3290  10.89$  17.54$  19.04$
|169>   Q  0.6645  5.76$  18.47$  4.94$
|170>   Q  0.6645  6.77$  18.61$  6.22$
|171>   Q  -1.3290  6.03$  18.46$  5.82$
|172>   Q  0.6645  9.25$  2.06$  12.94$
|173>   Q  0.6645  8.73$  2.56$  14.32$
|174>   Q  -1.3290  8.87$  2.61$  13.47$
|175>   Q  0.6645  7.01$  21.41$  7.4$
|176>   Q  0.6645  6.74$  21.75$  8.84$
|177>   Q  -1.3290  6.54$  21.71$  8.03$
|178>   Q  0.6645  15.9$  2.78$  18.35$
|179>   Q  0.6645  14.49$  2.78$  18.08$
|180>   Q  -1.3290  15.26$  2.98$  17.88$
|181>   Q  0.6645  5.45$  18.57$  12.16$
|182>   Q  0.6645  5.77$  19.69$  13.15$
|183>   Q  -1.3290  5.61$  19.36$  12.38$
|184>   Q  0.6645  5.97$  19$  9.2$
|185>   Q  0.6645  6.73$  19.03$  10.57$
|186>   Q  -1.3290  6.65$  18.88$  9.72$
|187>   Q  0.6645  12.11$  13.64$  20.22$
|188>   Q  0.6645  11.08$  13.99$  19.01$
|189>   Q  -1.3290  11.44$  13.53$  19.66$
|190>   Q  0.6645  8.04$  5.32$  6.95$
|191>   Q  0.6645  9.5$  5.66$  7.14$
|192>   Q  -1.3290  8.79$  5.3$  7.36$
|193>   Q  0.6645  5.23$  15.06$  6.23$
|194>   Q  0.6645  5.56$  16.64$  6.66$
|195>   Q  -1.3290  5.67$  15.72$  6.6$
|196>   Q  0.6645  15.86$  15.6$  15.69$
|197>   Q  0.6645  16.74$  15.19$  14.45$
|198>   Q  -1.3290  16.54$  15.3$  15.28$
|199>   Q  0.6645  2.85$  13.22$  3.67$
|200>   Q  0.6645  2.47$  12.71$  2.34$
|201>   Q  -1.3290  2.94$  12.76$  3.01$
|202>   Q  0.6645  10.36$  17.04$  16$
|203>   Q  0.6645  10.71$  18.5$  16.33$
|204>   Q  -1.3290  10.59$  17.84$  15.82$
|205>   Q  0.6645  4.85$  19.22$  7.36$
|206>   Q  0.6645  4.18$  20.28$  8.34$
|207>   Q  -1.3290  4.51$  19.52$  8.09$
|208>   Q  0.6645  17.26$  8.87$  13.77$
|209>   Q  0.6645  18.1$  8.56$  14.93$
|210>   Q  -1.3290  17.98$  8.73$  14.08$
|211>   Q  0.6645  13.98$  14.29$  21.97$
|212>   Q  0.6645  14.41$  15.54$  21.04$
|213>   Q  -1.3290  13.88$  15$  21.5$
|214>   Q  0.6645  12.73$  19.87$  14.46$
|215>   Q  0.6645  12.15$  18.53$  14.67$
|216>   Q  -1.3290  12.72$  19.05$  14.35$
|217>   Q  0.6645  5.21$  14.44$  19.05$
|218>   Q  0.6645  5.14$  13.25$  18.06$
|219>   Q  -1.3290  5.42$  13.67$  18.75$
|220>   Q  0.6645  3.66$  18.13$  14.88$
|221>   Q  0.6645  5.13$  18.12$  15.25$
|222>   Q  -1.3290  4.32$  18.07$  15.39$
|223>   Q  0.6645  16.16$  8.77$  9.04$
|224>   Q  0.6645  15.74$  7.5$  8.23$
|225>   Q  -1.3290  15.64$  8.34$  8.5$
|226>   Q  0.6645  2$  16.65$  6.68$
|227>   Q  0.6645  3.05$  17.53$  6.05$
|228>   Q  -1.3290  2.8$  16.82$  6.38$
|229>   Q  0.6645  3.72$  9.29$  9.61$
|230>   Q  0.6645  4.82$  8.25$  9.48$
|231>   Q  -1.3290  4.49$  8.98$  9.71$
|232>   Q  0.6645  6.59$  16.55$  1.04$
|233>   Q  0.6645  5.29$  16.66$  1.78$
|234>   Q  -1.3290  6.02$  16.97$  1.48$
|235>   Q  0.6645  3.29$  5.83$  8.99$
|236>   Q  0.6645  2.22$  6.37$  8$
|237>   Q  -1.3290  2.99$  6.1$  8.25$
|238>   Q  0.6645  19.95$  5.75$  14.15$
|239>   Q  0.6645  18.87$  4.65$  13.99$
|240>   Q  -1.3290  19.45$  5.22$  13.71$
|241>   Q  0.6645  12.74$  2.56$  11.81$
|242>   Q  0.6645  12.05$  3.82$  12.27$
|243>   Q  -1.3290  12.67$  3.28$  12.23$
|244>   Q  0.6645  14.58$  12.24$  4.86$
|245>   Q  0.6645  13.71$  13.18$  5.79$
|246>   Q  -1.3290  14.43$  12.74$  5.52$
|247>   Q  0.6645  10.38$  8.42$  7.12$
|248>   Q  0.6645  11.67$  9.13$  6.87$
|249>   Q  -1.3290  11.1$  8.5$  6.77$
|250>   Q  0.6645  8.9$  22.02$  6.52$
|251>   Q  0.6645  8.84$  20.53$  6.47$
|252>   Q  -1.3290  8.59$  21.28$  6.23$
|253>   Q  0.6645  11.65$  15.62$  0.52$
|254>   Q  0.6645  10.25$  16.31$  0.59$
|255>   Q  -1.3290  11.08$  16.25$  0.38$
|256>   Q  0.6645  10.87$  0.71$  6.95$
|257>   Q  0.6645  10.28$  2.13$  6.75$
|258>   Q  -1.3290  10.44$  1.37$  7.15$
|259>   Q  0.6645  4.31$  7.8$  13.1$
|260>   Q  0.6645  4.79$  8.47$  11.81$
|261>   Q  -1.3290  4.86$  7.99$  12.48$
|262>   Q  0.6645  14.15$  7.18$  14.97$
|263>   Q  0.6645  14.77$  6.2$  13.85$
|264>   Q  -1.3290  14.51$  6.46$  14.64$
|265>   Q  0.6645  12.99$  18.25$  2.44$
|266>   Q  0.6645  12.26$  19.59$  2.35$
|267>   Q  -1.3290  12.52$  18.87$  2.72$
|268>   Q  0.6645  18.79$  8.01$  7.51$
|269>   Q  0.6645  17.89$  6.93$  6.87$
|270>   Q  -1.3290  18.62$  7.37$  6.97$
|271>   Q  0.6645  2.32$  14.54$  12.17$
|272>   Q  0.6645  2.24$  15.66$  13.1$
|273>   Q  -1.3290  2.23$  14.86$  12.92$
|274>   Q  0.6645  14.68$  19.33$  11.13$
|275>   Q  0.6645  14.51$  19.38$  12.62$
|276>   Q  -1.3290  14.68$  19.71$  11.85$
|277>   Q  0.6645  15.95$  5.95$  16.11$
|278>   Q  0.6645  15.94$  4.67$  16.96$
|279>   Q  -1.3290  16.3$  5.35$  16.6$
|280>   Q  0.6645  5.13$  10.59$  17.53$
|281>   Q  0.6645  5.3$  9.17$  17.21$
|282>   Q  -1.3290  5.58$  9.89$  17.47$
|283>   Q  0.6645  15.35$  6.5$  19.09$
|284>   Q  0.6645  16.17$  5.22$  19.51$
|285>   Q  -1.3290  15.61$  5.86$  19.6$
|286>   Q  0.6645  3.08$  12.15$  17.28$
|287>   Q  0.6645  4.1$  11.96$  16.16$
|288>   Q  -1.3290  3.83$  11.9$  16.95$
|289>   Q  0.6645  8.01$  8.85$  20.29$
|290>   Q  0.6645  6.98$  9.22$  19.04$
|291>   Q  -1.3290  7.32$  8.8$  19.76$
|292>   Q  0.6645  9.62$  2.89$  19.76$
|293>   Q  0.6645  8.88$  3.67$  18.78$
|294>   Q  -1.3290  8.93$  3.19$  19.43$
|295>   Q  0.6645  20.73$  10.65$  9.5$
|296>   Q  0.6645  19.89$  11.3$  8.47$
|297>   Q  -1.3290  20.37$  10.69$  8.78$
|298>   Q  0.6645  14.26$  4.44$  12.31$
|299>   Q  0.6645  14.86$  5.72$  11.59$
|300>   Q  -1.3290  14.81$  5.05$  12.14$
|301>   Q  0.6645  1.68$  8.07$  10.57$
|302>   Q  0.6645  1.5$  6.83$  11.53$
|303>   Q  -1.3290  1.62$  7.25$  10.76$
|304>   Q  0.6645  14.41$  9.82$  21.23$
|305>   Q  0.6645  14.5$  9.36$  19.73$
|306>   Q  -1.3290  14.38$  9.87$  20.37$
|307>   Q  0.6645  4.06$  12.26$  13.64$
|308>   Q  0.6645  3.38$  13.62$  14.16$
|309>   Q  -1.3290  3.95$  12.94$  14.18$
|310>   Q  0.6645  10.9$  13.87$  2.79$
|311>   Q  0.6645  10.42$  13.94$  1.4$
|312>   Q  -1.3290  11.02$  13.96$  1.95$
|313>   Q  0.6645  9.31$  18.04$  2.74$
|314>   Q  0.6645  8.83$  16.64$  2.39$
|315>   Q  -1.3290  9.21$  17.18$  2.86$
|316>   Q  0.6645  4.7$  12.46$  1.65$
|317>   Q  0.6645  5.73$  12.62$  0.52$
|318>   Q  -1.3290  5.2$  12.89$  1.12$
|319>   Q  0.6645  13.74$  19.46$  8.67$
|320>   Q  0.6645  13.3$  18.15$  9.16$
|321>   Q  -1.3290  13.41$  18.95$  9.23$
|322>   Q  0.6645  8.76$  3.17$  8.57$
|323>   Q  0.6645  8.32$  3.6$  9.9$
|324>   Q  -1.3290  8.79$  3.18$  9.4$
|325>   Q  0.6645  14.54$  6.31$  4.29$
|326>   Q  0.6645  13.1$  5.84$  4.91$
|327>   Q  -1.3290  13.69$  6.06$  4.32$
|328>   Q  0.6645  -0.1$  9.25$  12.48$
|329>   Q  0.6645  0.14$  10.63$  13.19$
|330>   Q  -1.3290  0.35$  9.84$  12.93$
|331>   Q  0.6645  1.27$  13.35$  9.72$
|332>   Q  0.6645  1.48$  12.39$  8.49$
|333>   Q  -1.3290  1.04$  12.84$  9.07$
|334>   Q  0.6645  5.89$  3.23$  16.84$
|335>   Q  0.6645  6.81$  4.56$  16.76$
|336>   Q  -1.3290  6.08$  4.07$  16.8$
|337>   Q  0.6645  4.08$  9.43$  3.69$
|338>   Q  0.6645  4.17$  10.93$  3.51$
|339>   Q  -1.3290  4.47$  10.19$  3.72$
|340>   Q  0.6645  5.33$  15.87$  11.96$
|341>   Q  0.6645  4.75$  16.78$  10.8$
|342>   Q  -1.3290  5.2$  16.59$  11.5$
|343>   Q  0.6645  19.21$  16.47$  10.22$
|344>   Q  0.6645  18.38$  17.65$  9.97$
|345>   Q  -1.3290  18.49$  16.86$  10.1$
|346>   Q  0.6645  12.68$  22.14$  5.9$
|347>   Q  0.6645  12.43$  20.65$  6.18$
|348>   Q  -1.3290  12.21$  21.45$  6.13$
|349>   Q  0.6645  2.75$  13.55$  5.79$
|350>   Q  0.6645  1.62$  14.49$  5.46$
|351>   Q  -1.3290  2.14$  13.85$  5.33$
|352>   Q  0.6645  11.79$  10.51$  19.77$
|353>   Q  0.6645  10.69$  10.61$  18.8$
|354>   Q  -1.3290  11.14$  10.2$  19.36$
|355>   Q  0.6645  11.71$  18.07$  12.69$
|356>   Q  0.6645  10.47$  17.53$  12.25$
|357>   Q  -1.3290  11.27$  17.5$  12.34$
|358>   Q  0.6645  14.64$  19.93$  6.09$
|359>   Q  0.6645  15.54$  20.7$  6.87$
|360>   Q  -1.3290  15.01$  20.09$  6.79$
|361>   Q  0.6645  13.85$  17.01$  16.89$
|362>   Q  0.6645  14.45$  17.41$  15.59$
|363>   Q  -1.3290  14.17$  16.86$  16.14$
|364>   Q  0.6645  15.19$  9.73$  1.84$
|365>   Q  0.6645  15.61$  8.63$  0.84$
|366>   Q  -1.3290  15.1$  9.19$  1.2$
|367>   Q  0.6645  9.81$  13.02$  20.79$
|368>   Q  0.6645  8.67$  12.61$  21.61$
|369>   Q  -1.3290  9.3$  13.09$  21.45$
|370>   Q  0.6645  19.19$  10.34$  13.49$
|371>   Q  0.6645  19.03$  11.12$  12.38$
|372>   Q  -1.3290  19.38$  10.97$  13.07$
|373>   Q  0.6645  4.42$  13.63$  7.52$
|374>   Q  0.6645  4.82$  12.61$  6.46$
|375>   Q  -1.3290  4.26$  13.06$  6.94$
|376>   Q  0.6645  18.85$  14.72$  3.96$
|377>   Q  0.6645  18.44$  16.13$  3.88$
|378>   Q  -1.3290  18.27$  15.31$  4.01$
|379>   Q  0.6645  5.38$  12.71$  9.94$
|380>   Q  0.6645  5.76$  14.2$  9.97$
|381>   Q  -1.3290  5.24$  13.54$  9.95$
|382>   Q  0.6645  19.06$  12.72$  14.62$
|383>   Q  0.6645  19.55$  13.96$  15.31$
|384>   Q  -1.3290  19.26$  13.53$  14.67$
|385>   Q  0.6645  17.58$  10.97$  18.54$
|386>   Q  0.6645  16.64$  11.65$  17.53$
|387>   Q  -1.3290  17.16$  11.06$  17.83$
|388>   Q  0.6645  5.67$  4.42$  10.39$
|389>   Q  0.6645  6.39$  4.05$  9.12$
|390>   Q  -1.3290  6.33$  4.4$  9.91$
|391>   Q  0.6645  7.11$  5.56$  4.27$
|392>   Q  0.6645  6.28$  6.3$  5.18$
|393>   Q  -1.3290  6.85$  5.74$  5.01$
|394>   Q  0.6645  12.9$  22.27$  14.43$
|395>   Q  0.6645  11.59$  21.8$  14.02$
|396>   Q  -1.3290  12.29$  21.72$  14.42$
|397>   Q  0.6645  9.14$  18.75$  15.01$
|398>   Q  0.6645  7.73$  18.48$  15.56$
|399>   Q  -1.3290  8.29$  18.72$  14.96$
|400>   Q  0.6645  7.01$  5.73$  12.67$
|401>   Q  0.6645  7.19$  4.31$  13.02$
|402>   Q  -1.3290  6.76$  5.01$  12.96$
|403>   Q  0.6645  8.06$  5.71$  18.39$
|404>   Q  0.6645  8.46$  6.18$  17$
|405>   Q  -1.3290  8.54$  5.76$  17.71$
|406>   Q  0.6645  17.41$  2.57$  8.4$
|407>   Q  0.6645  16.54$  3.21$  7.26$
|408>   Q  -1.3290  16.89$  3.16$  8.02$
|409>   Q  0.6645  3.9$  7.15$  16.38$
|410>   Q  0.6645  4.71$  6.56$  17.6$
|411>   Q  -1.3290  4.56$  7.1$  16.92$
|412>   Q  0.6645  9.6$  20.14$  11.26$
|413>   Q  0.6645  8.8$  19.24$  12.33$
|414>   Q  -1.3290  9.03$  19.95$  11.9$
|415>   Q  0.6645  17.99$  9.27$  16.87$
|416>   Q  0.6645  17.83$  7.8$  17.4$
|417>   Q  -1.3290  17.95$  8.4$  16.81$
|418>   Q  0.6645  9.72$  14.23$  4.76$
|419>   Q  0.6645  9.66$  12.79$  4.03$
|420>   Q  -1.3290  10.01$  13.51$  4.36$
|421>   Q  0.6645  15.97$  2.24$  11.66$
|422>   Q  0.6645  16.26$  3.74$  11.83$
|423>   Q  -1.3290  16.46$  2.9$  11.79$
|424>   Q  0.6645  11.91$  3.34$  18.34$
|425>   Q  0.6645  12.74$  4.05$  19.29$
|426>   Q  -1.3290  12.49$  3.41$  18.91$
|427>   Q  0.6645  8.01$  7.14$  2.36$
|428>   Q  0.6645  6.51$  6.93$  1.93$
|429>   Q  -1.3290  7.24$  6.8$  2.39$
|430>   Q  0.6645  11.73$  3.92$  16.38$
|431>   Q  0.6645  10.27$  4.49$  16.73$
|432>   Q  -1.3290  10.9$  3.91$  16.67$
|433>   Q  0.6645  11.76$  6.65$  6.63$
|434>   Q  0.6645  12.01$  5.41$  7.52$
|435>   Q  -1.3290  11.83$  5.84$  6.8$
|436>   Q  0.6645  18.55$  13.54$  11.14$
|437>   Q  0.6645  18.62$  13.83$  12.64$
|438>   Q  -1.3290  18.75$  13.98$  11.82$
|439>   Q  0.6645  17.37$  14.38$  5.67$
|440>   Q  0.6645  16.42$  13.27$  6.03$
|441>   Q  -1.3290  17.02$  13.83$  6.2$
|442>   Q  0.6645  13.34$  4.71$  15.2$
|443>   Q  0.6645  13.24$  3.46$  14.28$
|444>   Q  -1.3290  13.27$  3.9$  15.01$
|445>   Q  0.6645  15.78$  8.52$  17.31$
|446>   Q  0.6645  14.42$  8.02$  17.72$
|447>   Q  -1.3290  15.25$  8.13$  17.78$
|448>   Q  0.6645  10.57$  7.79$  15.74$
|449>   Q  0.6645  10.79$  6.35$  15.24$
|450>   Q  -1.3290  10.91$  7.01$  15.75$
|451>   Q  0.6645  16.22$  17.17$  6.37$
|452>   Q  0.6645  14.97$  18.03$  6.3$
|453>   Q  -1.3290  15.4$  17.29$  6.26$
|454>   Q  0.6645  14.37$  11.79$  19.87$
|455>   Q  0.6645  14.78$  12.58$  18.74$
|456>   Q  -1.3290  14.56$  12.49$  19.53$
|457>   Q  0.6645  9.92$  15.72$  12.74$
|458>   Q  0.6645  9.29$  14.4$  12.88$
|459>   Q  -1.3290  9.8$  14.99$  13.1$
|460>   Q  0.6645  5.66$  3.85$  6.66$
|461>   Q  0.6645  6.21$  2.5$  7.19$
|462>   Q  -1.3290  5.83$  3.28$  7.24$
|463>   Q  0.6645  14.94$  3.71$  8.96$
|464>   Q  0.6645  13.88$  2.82$  8.31$
|465>   Q  -1.3290  14.17$  3.5$  8.75$
|466>   Q  0.6645  13.77$  11.63$  1.52$
|467>   Q  0.6645  12.87$  12.84$  1.47$
|468>   Q  -1.3290  13.57$  12.4$  1.33$
|469>   Q  0.6645  6.16$  14.99$  14.58$
|470>   Q  0.6645  7.04$  14.63$  15.89$
|471>   Q  -1.3290  6.5$  15.09$  15.37$
|472>   Q  0.6645  4.1$  6.93$  7.01$
|473>   Q  0.6645  4.84$  8.23$  6.49$
|474>   Q  -1.3290  4.65$  7.4$  6.54$
|475>   Q  0.6645  17.37$  20.23$  9.85$
|476>   Q  0.6645  17.91$  19.29$  8.8$
|477>   Q  -1.3290  17.88$  19.65$  9.55$
|478>   Q  0.6645  18.25$  16.44$  15.64$
|479>   Q  0.6645  19.12$  17.44$  14.85$
|480>   Q  -1.3290  18.56$  17.22$  15.42$
|481>   Q  0.6645  2.66$  15.36$  9.95$
|482>   Q  0.6645  3.29$  14.08$  10.26$
|483>   Q  -1.3290  2.65$  14.62$  10.29$
|484>   Q  0.6645  18.39$  12.24$  5.38$
|485>   Q  0.6645  19.73$  11.61$  5.4$
|486>   Q  -1.3290  18.91$  11.61$  5.57$
|487>   Q  0.6645  8.52$  0.79$  10.16$
|488>   Q  0.6645  7.84$  -0.42$  10.74$
|489>   Q  -1.3290  7.86$  0.32$  10.35$
|490>   Q  0.6645  12.2$  6.52$  1.71$
|491>   Q  0.6645  12.01$  6.05$  0.23$
|492>   Q  -1.3290  11.78$  6.21$  1.03$
|493>   Q  0.6645  12.35$  4.11$  9.42$
|494>   Q  0.6645  10.71$  4.18$  9.18$
|495>   Q  -1.3290  11.52$  4.44$  9.36$
|496>   Q  0.6645  16.94$  13.79$  2.44$
|497>   Q  0.6645  17.02$  12.83$  1.33$
|498>   Q  -1.3290  17.01$  13.01$  2.14$
|499>   Q  0.6645  16.83$  15.23$  19.08$
|500>   Q  0.6645  15.8$  15.74$  18.22$
|501>   Q  -1.3290  16.45$  15.83$  18.66$
|502>   Q  0.6645  4.56$  3.79$  15.28$
|503>   Q  0.6645  5.04$  3.82$  13.85$
|504>   Q  -1.3290  4.45$  3.84$  14.47$
|505>   Q  0.6645  19.44$  8.16$  12.75$
|506>   Q  0.6645  19.99$  7.54$  11.67$
|507>   Q  -1.3290  20.04$  8.07$  12.26$
|508>   Q  0.6645  3.73$  16.18$  16.22$
|509>   Q  0.6645  4.3$  14.74$  15.96$
|510>   Q  -1.3290  3.71$  15.32$  16.25$
|511>   Q  0.6645  13.58$  15.94$  2.78$
|512>   Q  0.6645  13.58$  16.05$  1.27$
|513>   Q  -1.3290  13.83$  16.22$  2.07$
|514>   Q  0.6645  12.42$  7.67$  17.3$
|515>   Q  0.6645  11.85$  8.52$  18.34$
|516>   Q  -1.3290  12.42$  8.04$  18.02$
|517>   Q  0.6645  18.55$  8.15$  9.74$
|518>   Q  0.6645  19.02$  9.4$  9.17$
|519>   Q  -1.3290  18.45$  8.83$  9.27$
|520>   Q  0.6645  11.74$  9.21$  3.39$
|521>   Q  0.6645  11.12$  8.77$  4.7$
|522>   Q  -1.3290  11.12$  9.1$  3.94$
|523>   Q  0.6645  3.8$  16.44$  8.16$
|524>   Q  0.6645  3.67$  17.87$  8.8$
|525>   Q  -1.3290  3.72$  17.02$  8.81$
|526>   Q  0.6645  1.7$  10.11$  11.56$
|527>   Q  0.6645  1.76$  10.82$  10.23$
|528>   Q  -1.3290  2.05$  10.35$  10.84$
|529>   Q  0.6645  6.09$  18.1$  17.47$
|530>   Q  0.6645  6.78$  16.87$  16.76$
|531>   Q  -1.3290  6.69$  17.68$  16.97$
|532>   Q  0.6645  2.2$  6.9$  14.02$
|533>   Q  0.6645  3.52$  6.17$  14.29$
|534>   Q  -1.3290  3.01$  6.83$  14.19$
|535>   Q  0.6645  5.6$  18.68$  2.51$
|536>   Q  0.6645  5.73$  19.96$  3.33$
|537>   Q  -1.3290  5.34$  19.27$  3.04$
|538>   Q  0.6645  5.77$  7.04$  7.99$
|539>   Q  0.6645  6.68$  6.33$  8.99$
|540>   Q  -1.3290  6.25$  6.98$  8.66$
|541>   Q  0.6645  6.66$  13.94$  12.58$
|542>   Q  0.6645  5.36$  13.86$  13.24$
|543>   Q  -1.3290  6.01$  14.27$  12.95$
|544>   Q  0.6645  8.67$  1.08$  16.67$
|545>   Q  0.6645  9.99$  1.8$  16.43$
|546>   Q  -1.3290  9.46$  1.15$  16.39$
|547>   Q  0.6645  13.36$  7.76$  3.23$
|548>   Q  0.6645  13.49$  8.57$  1.94$
|549>   Q  -1.3290  13.08$  8.23$  2.58$
|550>   Q  0.6645  9.13$  13.97$  17.05$
|551>   Q  0.6645  9.04$  14.33$  15.56$
|552>   Q  -1.3290  8.78$  13.95$  16.27$
|553>   Q  0.6645  15.82$  5.39$  6.68$
|554>   Q  0.6645  16.7$  4.97$  7.88$
|555>   Q  -1.3290  16.32$  5.51$  7.34$
|556>   Q  0.6645  8.89$  16.22$  4.68$
|557>   Q  0.6645  7.75$  15.68$  5.56$
|558>   Q  -1.3290  8.55$  15.83$  5.33$
|559>   Q  0.6645  15.5$  17.84$  13.49$
|560>   Q  0.6645  16.58$  17.9$  14.64$
|561>   Q  -1.3290  15.97$  18.17$  14.15$
|562>   Q  0.6645  9.99$  7.34$  1.42$
|563>   Q  0.6645  10.07$  8.4$  2.57$
|564>   Q  -1.3290  9.71$  7.95$  1.95$
|565>   Q  0.6645  3.85$  19.63$  4.94$
|566>   Q  0.6645  2.62$  20.36$  5.26$
|567>   Q  -1.3290  3.07$  19.68$  5.22$
|568>   Q  0.6645  15.77$  10.48$  4.35$
|569>   Q  0.6645  15.72$  11.45$  3.1$
|570>   Q  -1.3290  15.48$  10.82$  3.61$
|571>   Q  0.6645  12.52$  6.76$  19.87$
|572>   Q  0.6645  13.64$  5.96$  20.46$
|573>   Q  -1.3290  12.85$  6.12$  20.32$
|574>   Q  0.6645  14.47$  20.96$  3.64$
|575>   Q  0.6645  13.68$  19.74$  3.78$
|576>   Q  -1.3290  14.28$  20.25$  4.01$
|577>   Q  0.6645  19.83$  7.44$  16.09$
|578>   Q  0.6645  21.15$  7.49$  15.41$
|579>   Q  -1.3290  20.47$  7.14$  15.65$
|580>   Q  0.6645  15.62$  15.85$  1.74$
|581>   Q  0.6645  16.89$  15.64$  2.57$
|582>   Q  -1.3290  16.4$  15.56$  1.89$
|583>   Q  0.6645  17.96$  13.03$  7.92$
|584>   Q  0.6645  19.28$  13.47$  8.57$
|585>   Q  -1.3290  18.55$  13.04$  8.51$
|586>   Q  0.6645  14.59$  0.53$  16.51$
|587>   Q  0.6645  14.96$  1.88$  16.06$
|588>   Q  -1.3290  15$  1.05$  16.01$
|589>   Q  0.6645  8.51$  17.5$  13.52$
|590>   Q  0.6645  7.94$  17$  12.16$
|591>   Q  -1.3290  8.51$  17.4$  12.65$
|592>   Q  0.6645  3.2$  11.4$  7.45$
|593>   Q  0.6645  1.75$  10.66$  7.33$
|594>   Q  -1.3290  2.48$  10.99$  7.73$
|595>   Q  0.6645  12.3$  17.65$  6.12$
|596>   Q  0.6645  12.11$  18.41$  4.8$
|597>   Q  -1.3290  12.23$  18.34$  5.64$
|598>   Q  0.6645  6.03$  1.42$  10.55$
|599>   Q  0.6645  4.67$  0.81$  10.94$
|600>   Q  -1.3290  5.22$  1.43$  10.83$
|601>   Q  0.6645  19.04$  5.78$  11.45$
|602>   Q  0.6645  19.37$  5.87$  9.92$
|603>   Q  -1.3290  19.18$  6.18$  10.71$
|604>   Q  0.6645  13.74$  -0.33$  8.29$
|605>   Q  0.6645  14.66$  0.45$  9.28$
|606>   Q  -1.3290  14.14$  0.34$  8.59$
|607>   Q  0.6645  6.77$  12.32$  20.14$
|608>   Q  0.6645  7.12$  10.86$  20.74$
|609>   Q  -1.3290  6.8$  11.67$  20.73$
|610>   Q  0.6645  10.27$  20.02$  8.91$
|611>   Q  0.6645  11.59$  19.68$  9.63$
|612>   Q  -1.3290  10.85$  20.05$  9.49$
|613>   Q  0.6645  14.53$  -0.07$  12.83$
|614>   Q  0.6645  14.93$  1.24$  13.48$
|615>   Q  -1.3290  14.64$  0.76$  12.87$
|616>   Q  0.6645  16.38$  8.01$  4.56$
|617>   Q  0.6645  16.47$  6.84$  3.49$
|618>   Q  -1.3290  16.2$  7.27$  4.21$
|619>   Q  0.6645  6.03$  1.64$  12.56$
|620>   Q  0.6645  7.35$  1.92$  13.16$
|621>   Q  -1.3290  6.57$  1.57$  13.18$
|622>   Q  0.6645  3.48$  3.75$  11.05$
|623>   Q  0.6645  3.55$  5.25$  11.63$
|624>   Q  -1.3290  3.68$  4.6$  11.06$
|625>   Q  0.6645  8.22$  16.28$  -0.42$
|626>   Q  0.6645  8.58$  14.97$  0$
|627>   Q  -1.3290  8.39$  15.73$  0.15$
|628>   Q  0.6645  17.38$  9.9$  5.57$
|629>   Q  0.6645  16.55$  9.07$  6.54$
|630>   Q  -1.3290  16.69$  9.49$  5.81$
|631>   Q  0.6645  10.05$  9.8$  21.1$
|632>   Q  0.6645  9.22$  9.36$  22.26$
|633>   Q  -1.3290  9.33$  9.64$  21.51$
|634>   Q  0.6645  5.97$  10.5$  2.75$
|635>   Q  0.6645  7.3$  11.14$  2.42$
|636>   Q  -1.3290  6.67$  10.62$  2.27$
|637>   Q  0.6645  10.05$  3.49$  4.86$
|638>   Q  0.6645  10.89$  4.48$  5.79$
|639>   Q  -1.3290  10.64$  3.71$  5.45$
|640>   Q  0.6645  5.81$  5.46$  19.84$
|641>   Q  0.6645  6.73$  6.76$  19.8$
|642>   Q  -1.3290  6.52$  5.94$  19.68$
|643>   Q  0.6645  7.93$  18.9$  8.3$
|644>   Q  0.6645  8.94$  18.16$  7.23$
|645>   Q  -1.3290  8.52$  18.81$  7.61$
|646>   Q  0.6645  10.65$  0.7$  12$
|647>   Q  0.6645  9.65$  -0.17$  12.77$
|648>   Q  -1.3290  10.22$  0.47$  12.68$
|649> *
|650> 
|651>                          ****END OF INPUT****
================================================================================

                     *******************************
                     * Energy+Gradient Calculation *
                     *******************************

---------------------------------
CARTESIAN COORDINATES (ANGSTROEM)
---------------------------------
  C     11.790000   10.270000   12.370000
  H     11.560000   10.990000   13.200000
  H     12.810000   10.110000   12.180000
  C     10.940000   10.790000   11.120000
  H     10.980000    9.910000   10.430000
  H      9.950000   10.840000   11.420000
  C     11.440000   12.110000   10.510000
  H     12.380000   11.930000   10.140000
  H     11.680000   12.870000   11.190000
  C     10.690000   12.620000    9.250000
  H     10.300000   11.770000    8.670000
  H     11.250000   13.320000    8.640000
  O      9.480000   13.340000    9.730000
  H      9.030000   13.570000    8.920000
  O     11.350000    9.020000   12.950000
  H     11.290000    8.270000   12.320000
  O     13.120000   11.880000   15.790000
  H     12.830000   12.580000   15.180000
  H     12.390000   11.790000   16.430000
  O     14.810000   11.670000   11.170000
  H     14.760000   11.780000   10.240000
  H     14.430000   12.540000   11.510000
  O     14.270000   14.420000   10.680000
  H     14.970000   14.600000   10.050000
  H     13.430000   14.640000   10.270000
  O      7.980000   11.160000    7.250000
  H      8.410000   10.320000    7.490000
  H      7.300000   11.310000    7.910000
  O      9.660000    7.750000   10.630000
  H      8.990000    7.610000   11.320000
  H     10.140000    6.980000   10.780000
  O      7.320000   10.450000   13.020000
  H      7.370000   10.550000   13.990000
  H      7.660000    9.600000   12.800000
  O     12.140000   16.210000    9.580000
  H     11.240000   16.250000    9.330000
  H     12.050000   16.570000   10.530000
  O     11.880000    6.180000   11.600000
  H     11.860000    5.610000   10.850000
  H     12.760000    6.510000   11.690000
  O      9.990000   16.040000    8.050000
  H      9.210000   15.850000    8.580000
  H      9.660000   15.890000    7.120000
  O      8.960000    8.350000    8.060000
  H      9.270000    8.200000    8.980000
  H      8.150000    7.800000    8.000000
  O     15.650000   12.950000   17.050000
  H     16.200000   13.330000   16.350000
  H     14.760000   12.820000   16.670000
  O     12.140000   13.450000    6.380000
  H     11.540000   13.560000    5.640000
  H     12.470000   14.370000    6.550000
  O      8.130000   12.960000   11.990000
  H      7.890000   12.030000   12.040000
  H      8.470000   13.150000   11.060000
  O      7.290000   15.800000    9.260000
  H      6.900000   16.590000    9.710000
  H      6.690000   15.680000    8.520000
  O      4.530000   11.110000   12.360000
  H      3.900000   10.930000   11.640000
  H      5.390000   10.880000   12.200000
  O     10.490000    5.400000   13.650000
  H     11.190000    5.650000   12.970000
  H     10.020000    4.580000   13.550000
  O     16.480000   15.960000   12.380000
  H     17.280000   15.930000   11.830000
  H     15.720000   15.650000   11.880000
  O      9.530000    9.230000   15.040000
  H      9.920000    9.320000   14.130000
  H      8.770000    9.820000   14.970000
  O     14.460000    7.330000   11.260000
  H     14.760000    8.060000   11.870000
  H     14.460000    7.670000   10.310000
  O     17.650000   11.560000   11.080000
  H     16.690000   11.510000   11.230000
  H     17.660000   11.770000   10.190000
  O     16.100000   15.580000    8.680000
  H     16.940000   15.880000    9.030000
  H     16.200000   15.030000    7.850000
  O     15.120000    9.450000   12.720000
  H     14.970000   10.310000   12.240000
  H     14.680000    9.420000   13.560000
  O      6.560000   11.020000    9.600000
  H      5.920000   10.230000    9.580000
  H      7.280000   10.640000   10.060000
  O     12.200000   10.940000    7.040000
  H     12.070000   11.890000    6.840000
  H     12.960000   11.070000    7.680000
  O     12.190000   14.620000   15.200000
  H     11.850000   14.830000   14.280000
  H     12.880000   15.280000   15.280000
  O     14.930000   11.730000    8.470000
  H     15.040000   12.290000    7.700000
  H     15.250000   10.920000    8.140000
  O      5.390000    9.960000    6.480000
  H      5.180000   10.090000    5.480000
  H      6.290000   10.270000    6.660000
  O      7.790000    7.730000   12.750000
  H      7.870000    7.450000   13.670000
  H      6.830000    7.900000   12.770000
  O      6.510000   12.930000    5.720000
  H      6.880000   13.080000    4.840000
  H      7.330000   12.680000    6.170000
  O     13.470000    8.790000   15.230000
  H     12.670000    8.430000   14.840000
  H     13.190000    9.630000   15.530000
  O      8.680000   11.040000    3.930000
  H      8.120000   11.030000    4.730000
  H      9.120000   10.180000    3.930000
  O      7.450000   10.980000   15.600000
  H      6.630000   10.870000   16.140000
  H      7.920000   11.680000   16.120000
  O     12.970000   15.830000    6.920000
  H     12.650000   15.850000    7.850000
  H     13.830000   16.210000    6.860000
  O     10.330000   11.120000   16.970000
  H     10.320000   10.310000   16.470000
  H     10.160000   11.880000   16.370000
  Q     17.030000    3.110000   14.080000
  Q     17.130000    4.270000   15.130000
  Q     17.370000    3.580000   14.680000
  Q      6.630000    5.850000   14.710000
  Q      6.130000    6.670000   15.840000
  Q      6.730000    6.310000   15.380000
  Q     10.770000   15.920000   18.010000
  Q     11.340000   14.920000   16.940000
  Q     10.820000   15.200000   17.550000
  Q      6.270000   13.570000    2.400000
  Q      7.260000   14.710000    2.240000
  Q      6.890000   14.050000    2.660000
  Q     16.320000   17.840000    2.520000
  Q     15.820000   17.320000    3.890000
  Q     16.380000   17.640000    3.350000
  Q     20.420000   15.410000    8.620000
  Q     21.380000   14.280000    8.380000
  Q     20.650000   14.700000    8.260000
  Q     10.690000    2.090000    9.960000
  Q     11.450000    0.600000    9.780000
  Q     11.070000    1.290000   10.170000
  Q     10.870000   17.140000   19.810000
  Q     10.380000   18.110000   18.670000
  Q     10.890000   17.540000   19.040000
  Q      5.760000   18.470000    4.940000
  Q      6.770000   18.610000    6.220000
  Q      6.030000   18.460000    5.820000
  Q      9.250000    2.060000   12.940000
  Q      8.730000    2.560000   14.320000
  Q      8.870000    2.610000   13.470000
  Q      7.010000   21.410000    7.400000
  Q      6.740000   21.750000    8.840000
  Q      6.540000   21.710000    8.030000
  Q     15.900000    2.780000   18.350000
  Q     14.490000    2.780000   18.080000
  Q     15.260000    2.980000   17.880000
  Q      5.450000   18.570000   12.160000
  Q      5.770000   19.690000   13.150000
  Q      5.610000   19.360000   12.380000
  Q      5.970000   19.000000    9.200000
  Q      6.730000   19.030000   10.570000
  Q      6.650000   18.880000    9.720000
  Q     12.110000   13.640000   20.220000
  Q     11.080000   13.990000   19.010000
  Q     11.440000   13.530000   19.660000
  Q      8.040000    5.320000    6.950000
  Q      9.500000    5.660000    7.140000
  Q      8.790000    5.300000    7.360000
  Q      5.230000   15.060000    6.230000
  Q      5.560000   16.640000    6.660000
  Q      5.670000   15.720000    6.600000
  Q     15.860000   15.600000   15.690000
  Q     16.740000   15.190000   14.450000
  Q     16.540000   15.300000   15.280000
  Q      2.850000   13.220000    3.670000
  Q      2.470000   12.710000    2.340000
  Q      2.940000   12.760000    3.010000
  Q     10.360000   17.040000   16.000000
  Q     10.710000   18.500000   16.330000
  Q     10.590000   17.840000   15.820000
  Q      4.850000   19.220000    7.360000
  Q      4.180000   20.280000    8.340000
  Q      4.510000   19.520000    8.090000
  Q     17.260000    8.870000   13.770000
  Q     18.100000    8.560000   14.930000
  Q     17.980000    8.730000   14.080000
  Q     13.980000   14.290000   21.970000
  Q     14.410000   15.540000   21.040000
  Q     13.880000   15.000000   21.500000
  Q     12.730000   19.870000   14.460000
  Q     12.150000   18.530000   14.670000
  Q     12.720000   19.050000   14.350000
  Q      5.210000   14.440000   19.050000
  Q      5.140000   13.250000   18.060000
  Q      5.420000   13.670000   18.750000
  Q      3.660000   18.130000   14.880000
  Q      5.130000   18.120000   15.250000
  Q      4.320000   18.070000   15.390000
  Q     16.160000    8.770000    9.040000
  Q     15.740000    7.500000    8.230000
  Q     15.640000    8.340000    8.500000
  Q      2.000000   16.650000    6.680000
  Q      3.050000   17.530000    6.050000
  Q      2.800000   16.820000    6.380000
  Q      3.720000    9.290000    9.610000
  Q      4.820000    8.250000    9.480000
  Q      4.490000    8.980000    9.710000
  Q      6.590000   16.550000    1.040000
  Q      5.290000   16.660000    1.780000
  Q      6.020000   16.970000    1.480000
  Q      3.290000    5.830000    8.990000
  Q      2.220000    6.370000    8.000000
  Q      2.990000    6.100000    8.250000
  Q     19.950000    5.750000   14.150000
  Q     18.870000    4.650000   13.990000
  Q     19.450000    5.220000   13.710000
  Q     12.740000    2.560000   11.810000
  Q     12.050000    3.820000   12.270000
  Q     12.670000    3.280000   12.230000
  Q     14.580000   12.240000    4.860000
  Q     13.710000   13.180000    5.790000
  Q     14.430000   12.740000    5.520000
  Q     10.380000    8.420000    7.120000
  Q     11.670000    9.130000    6.870000
  Q     11.100000    8.500000    6.770000
  Q      8.900000   22.020000    6.520000
  Q      8.840000   20.530000    6.470000
  Q      8.590000   21.280000    6.230000
  Q     11.650000   15.620000    0.520000
  Q     10.250000   16.310000    0.590000
  Q     11.080000   16.250000    0.380000
  Q     10.870000    0.710000    6.950000
  Q     10.280000    2.130000    6.750000
  Q     10.440000    1.370000    7.150000
  Q      4.310000    7.800000   13.100000
  Q      4.790000    8.470000   11.810000
  Q      4.860000    7.990000   12.480000
  Q     14.150000    7.180000   14.970000
  Q     14.770000    6.200000   13.850000
  Q     14.510000    6.460000   14.640000
  Q     12.990000   18.250000    2.440000
  Q     12.260000   19.590000    2.350000
  Q     12.520000   18.870000    2.720000
  Q     18.790000    8.010000    7.510000
  Q     17.890000    6.930000    6.870000
  Q     18.620000    7.370000    6.970000
  Q      2.320000   14.540000   12.170000
  Q      2.240000   15.660000   13.100000
  Q      2.230000   14.860000   12.920000
  Q     14.680000   19.330000   11.130000
  Q     14.510000   19.380000   12.620000
  Q     14.680000   19.710000   11.850000
  Q     15.950000    5.950000   16.110000
  Q     15.940000    4.670000   16.960000
  Q     16.300000    5.350000   16.600000
  Q      5.130000   10.590000   17.530000
  Q      5.300000    9.170000   17.210000
  Q      5.580000    9.890000   17.470000
  Q     15.350000    6.500000   19.090000
  Q     16.170000    5.220000   19.510000
  Q     15.610000    5.860000   19.600000
  Q      3.080000   12.150000   17.280000
  Q      4.100000   11.960000   16.160000
  Q      3.830000   11.900000   16.950000
  Q      8.010000    8.850000   20.290000
  Q      6.980000    9.220000   19.040000
  Q      7.320000    8.800000   19.760000
  Q      9.620000    2.890000   19.760000
  Q      8.880000    3.670000   18.780000
  Q      8.930000    3.190000   19.430000
  Q     20.730000   10.650000    9.500000
  Q     19.890000   11.300000    8.470000
  Q     20.370000   10.690000    8.780000
  Q     14.260000    4.440000   12.310000
  Q     14.860000    5.720000   11.590000
  Q     14.810000    5.050000   12.140000
  Q      1.680000    8.070000   10.570000
  Q      1.500000    6.830000   11.530000
  Q      1.620000    7.250000   10.760000
  Q     14.410000    9.820000   21.230000
  Q     14.500000    9.360000   19.730000
  Q     14.380000    9.870000   20.370000
  Q      4.060000   12.260000   13.640000
  Q      3.380000   13.620000   14.160000
  Q      3.950000   12.940000   14.180000
  Q     10.900000   13.870000    2.790000
  Q     10.420000   13.940000    1.400000
  Q     11.020000   13.960000    1.950000
  Q      9.310000   18.040000    2.740000
  Q      8.830000   16.640000    2.390000
  Q      9.210000   17.180000    2.860000
  Q      4.700000   12.460000    1.650000
  Q      5.730000   12.620000    0.520000
  Q      5.200000   12.890000    1.120000
  Q     13.740000   19.460000    8.670000
  Q     13.300000   18.150000    9.160000
  Q     13.410000   18.950000    9.230000
  Q      8.760000    3.170000    8.570000
  Q      8.320000    3.600000    9.900000
  Q      8.790000    3.180000    9.400000
  Q     14.540000    6.310000    4.290000
  Q     13.100000    5.840000    4.910000
  Q     13.690000    6.060000    4.320000
  Q     -0.100000    9.250000   12.480000
  Q      0.140000   10.630000   13.190000
  Q      0.350000    9.840000   12.930000
  Q      1.270000   13.350000    9.720000
  Q      1.480000   12.390000    8.490000
  Q      1.040000   12.840000    9.070000
  Q      5.890000    3.230000   16.840000
  Q      6.810000    4.560000   16.760000
  Q      6.080000    4.070000   16.800000
  Q      4.080000    9.430000    3.690000
  Q      4.170000   10.930000    3.510000
  Q      4.470000   10.190000    3.720000
  Q      5.330000   15.870000   11.960000
  Q      4.750000   16.780000   10.800000
  Q      5.200000   16.590000   11.500000
  Q     19.210000   16.470000   10.220000
  Q     18.380000   17.650000    9.970000
  Q     18.490000   16.860000   10.100000
  Q     12.680000   22.140000    5.900000
  Q     12.430000   20.650000    6.180000
  Q     12.210000   21.450000    6.130000
  Q      2.750000   13.550000    5.790000
  Q      1.620000   14.490000    5.460000
  Q      2.140000   13.850000    5.330000
  Q     11.790000   10.510000   19.770000
  Q     10.690000   10.610000   18.800000
  Q     11.140000   10.200000   19.360000
  Q     11.710000   18.070000   12.690000
  Q     10.470000   17.530000   12.250000
  Q     11.270000   17.500000   12.340000
  Q     14.640000   19.930000    6.090000
  Q     15.540000   20.700000    6.870000
  Q     15.010000   20.090000    6.790000
  Q     13.850000   17.010000   16.890000
  Q     14.450000   17.410000   15.590000
  Q     14.170000   16.860000   16.140000
  Q     15.190000    9.730000    1.840000
  Q     15.610000    8.630000    0.840000
  Q     15.100000    9.190000    1.200000
  Q      9.810000   13.020000   20.790000
  Q      8.670000   12.610000   21.610000
  Q      9.300000   13.090000   21.450000
  Q     19.190000   10.340000   13.490000
  Q     19.030000   11.120000   12.380000
  Q     19.380000   10.970000   13.070000
  Q      4.420000   13.630000    7.520000
  Q      4.820000   12.610000    6.460000
  Q      4.260000   13.060000    6.940000
  Q     18.850000   14.720000    3.960000
  Q     18.440000   16.130000    3.880000
  Q     18.270000   15.310000    4.010000
  Q      5.380000   12.710000    9.940000
  Q      5.760000   14.200000    9.970000
  Q      5.240000   13.540000    9.950000
  Q     19.060000   12.720000   14.620000
  Q     19.550000   13.960000   15.310000
  Q     19.260000   13.530000   14.670000
  Q     17.580000   10.970000   18.540000
  Q     16.640000   11.650000   17.530000
  Q     17.160000   11.060000   17.830000
  Q      5.670000    4.420000   10.390000
  Q      6.390000    4.050000    9.120000
  Q      6.330000    4.400000    9.910000
  Q      7.110000    5.560000    4.270000
  Q      6.280000    6.300000    5.180000
  Q      6.850000    5.740000    5.010000
  Q     12.900000   22.270000   14.430000
  Q     11.590000   21.800000   14.020000
  Q     12.290000   21.720000   14.420000
  Q      9.140000   18.750000   15.010000
  Q      7.730000   18.480000   15.560000
  Q      8.290000   18.720000   14.960000
  Q      7.010000    5.730000   12.670000
  Q      7.190000    4.310000   13.020000
  Q      6.760000    5.010000   12.960000
  Q      8.060000    5.710000   18.390000
  Q      8.460000    6.180000   17.000000
  Q      8.540000    5.760000   17.710000
  Q     17.410000    2.570000    8.400000
  Q     16.540000    3.210000    7.260000
  Q     16.890000    3.160000    8.020000
  Q      3.900000    7.150000   16.380000
  Q      4.710000    6.560000   17.600000
  Q      4.560000    7.100000   16.920000
  Q      9.600000   20.140000   11.260000
  Q      8.800000   19.240000   12.330000
  Q      9.030000   19.950000   11.900000
  Q     17.990000    9.270000   16.870000
  Q     17.830000    7.800000   17.400000
  Q     17.950000    8.400000   16.810000
  Q      9.720000   14.230000    4.760000
  Q      9.660000   12.790000    4.030000
  Q     10.010000   13.510000    4.360000
  Q     15.970000    2.240000   11.660000
  Q     16.260000    3.740000   11.830000
  Q     16.460000    2.900000   11.790000
  Q     11.910000    3.340000   18.340000
  Q     12.740000    4.050000   19.290000
  Q     12.490000    3.410000   18.910000
  Q      8.010000    7.140000    2.360000
  Q      6.510000    6.930000    1.930000
  Q      7.240000    6.800000    2.390000
  Q     11.730000    3.920000   16.380000
  Q     10.270000    4.490000   16.730000
  Q     10.900000    3.910000   16.670000
  Q     11.760000    6.650000    6.630000
  Q     12.010000    5.410000    7.520000
  Q     11.830000    5.840000    6.800000
  Q     18.550000   13.540000   11.140000
  Q     18.620000   13.830000   12.640000
  Q     18.750000   13.980000   11.820000
  Q     17.370000   14.380000    5.670000
  Q     16.420000   13.270000    6.030000
  Q     17.020000   13.830000    6.200000
  Q     13.340000    4.710000   15.200000
  Q     13.240000    3.460000   14.280000
  Q     13.270000    3.900000   15.010000
  Q     15.780000    8.520000   17.310000
  Q     14.420000    8.020000   17.720000
  Q     15.250000    8.130000   17.780000
  Q     10.570000    7.790000   15.740000
  Q     10.790000    6.350000   15.240000
  Q     10.910000    7.010000   15.750000
  Q     16.220000   17.170000    6.370000
  Q     14.970000   18.030000    6.300000
  Q     15.400000   17.290000    6.260000
  Q     14.370000   11.790000   19.870000
  Q     14.780000   12.580000   18.740000
  Q     14.560000   12.490000   19.530000
  Q      9.920000   15.720000   12.740000
  Q      9.290000   14.400000   12.880000
  Q      9.800000   14.990000   13.100000
  Q      5.660000    3.850000    6.660000
  Q      6.210000    2.500000    7.190000
  Q      5.830000    3.280000    7.240000
  Q     14.940000    3.710000    8.960000
  Q     13.880000    2.820000    8.310000
  Q     14.170000    3.500000    8.750000
  Q     13.770000   11.630000    1.520000
  Q     12.870000   12.840000    1.470000
  Q     13.570000   12.400000    1.330000
  Q      6.160000   14.990000   14.580000
  Q      7.040000   14.630000   15.890000
  Q      6.500000   15.090000   15.370000
  Q      4.100000    6.930000    7.010000
  Q      4.840000    8.230000    6.490000
  Q      4.650000    7.400000    6.540000
  Q     17.370000   20.230000    9.850000
  Q     17.910000   19.290000    8.800000
  Q     17.880000   19.650000    9.550000
  Q     18.250000   16.440000   15.640000
  Q     19.120000   17.440000   14.850000
  Q     18.560000   17.220000   15.420000
  Q      2.660000   15.360000    9.950000
  Q      3.290000   14.080000   10.260000
  Q      2.650000   14.620000   10.290000
  Q     18.390000   12.240000    5.380000
  Q     19.730000   11.610000    5.400000
  Q     18.910000   11.610000    5.570000
  Q      8.520000    0.790000   10.160000
  Q      7.840000   -0.420000   10.740000
  Q      7.860000    0.320000   10.350000
  Q     12.200000    6.520000    1.710000
  Q     12.010000    6.050000    0.230000
  Q     11.780000    6.210000    1.030000
  Q     12.350000    4.110000    9.420000
  Q     10.710000    4.180000    9.180000
  Q     11.520000    4.440000    9.360000
  Q     16.940000   13.790000    2.440000
  Q     17.020000   12.830000    1.330000
  Q     17.010000   13.010000    2.140000
  Q     16.830000   15.230000   19.080000
  Q     15.800000   15.740000   18.220000
  Q     16.450000   15.830000   18.660000
  Q      4.560000    3.790000   15.280000
  Q      5.040000    3.820000   13.850000
  Q      4.450000    3.840000   14.470000
  Q     19.440000    8.160000   12.750000
  Q     19.990000    7.540000   11.670000
  Q     20.040000    8.070000   12.260000
  Q      3.730000   16.180000   16.220000
  Q      4.300000   14.740000   15.960000
  Q      3.710000   15.320000   16.250000
  Q     13.580000   15.940000    2.780000
  Q     13.580000   16.050000    1.270000
  Q     13.830000   16.220000    2.070000
  Q     12.420000    7.670000   17.300000
  Q     11.850000    8.520000   18.340000
  Q     12.420000    8.040000   18.020000
  Q     18.550000    8.150000    9.740000
  Q     19.020000    9.400000    9.170000
  Q     18.450000    8.830000    9.270000
  Q     11.740000    9.210000    3.390000
  Q     11.120000    8.770000    4.700000
  Q     11.120000    9.100000    3.940000
  Q      3.800000   16.440000    8.160000
  Q      3.670000   17.870000    8.800000
  Q      3.720000   17.020000    8.810000
  Q      1.700000   10.110000   11.560000
  Q      1.760000   10.820000   10.230000
  Q      2.050000   10.350000   10.840000
  Q      6.090000   18.100000   17.470000
  Q      6.780000   16.870000   16.760000
  Q      6.690000   17.680000   16.970000
  Q      2.200000    6.900000   14.020000
  Q      3.520000    6.170000   14.290000
  Q      3.010000    6.830000   14.190000
  Q      5.600000   18.680000    2.510000
  Q      5.730000   19.960000    3.330000
  Q      5.340000   19.270000    3.040000
  Q      5.770000    7.040000    7.990000
  Q      6.680000    6.330000    8.990000
  Q      6.250000    6.980000    8.660000
  Q      6.660000   13.940000   12.580000
  Q      5.360000   13.860000   13.240000
  Q      6.010000   14.270000   12.950000
  Q      8.670000    1.080000   16.670000
  Q      9.990000    1.800000   16.430000
  Q      9.460000    1.150000   16.390000
  Q     13.360000    7.760000    3.230000
  Q     13.490000    8.570000    1.940000
  Q     13.080000    8.230000    2.580000
  Q      9.130000   13.970000   17.050000
  Q      9.040000   14.330000   15.560000
  Q      8.780000   13.950000   16.270000
  Q     15.820000    5.390000    6.680000
  Q     16.700000    4.970000    7.880000
  Q     16.320000    5.510000    7.340000
  Q      8.890000   16.220000    4.680000
  Q      7.750000   15.680000    5.560000
  Q      8.550000   15.830000    5.330000
  Q     15.500000   17.840000   13.490000
  Q     16.580000   17.900000   14.640000
  Q     15.970000   18.170000   14.150000
  Q      9.990000    7.340000    1.420000
  Q     10.070000    8.400000    2.570000
  Q      9.710000    7.950000    1.950000
  Q      3.850000   19.630000    4.940000
  Q      2.620000   20.360000    5.260000
  Q      3.070000   19.680000    5.220000
  Q     15.770000   10.480000    4.350000
  Q     15.720000   11.450000    3.100000
  Q     15.480000   10.820000    3.610000
  Q     12.520000    6.760000   19.870000
  Q     13.640000    5.960000   20.460000
  Q     12.850000    6.120000   20.320000
  Q     14.470000   20.960000    3.640000
  Q     13.680000   19.740000    3.780000
  Q     14.280000   20.250000    4.010000
  Q     19.830000    7.440000   16.090000
  Q     21.150000    7.490000   15.410000
  Q     20.470000    7.140000   15.650000
  Q     15.620000   15.850000    1.740000
  Q     16.890000   15.640000    2.570000
  Q     16.400000   15.560000    1.890000
  Q     17.960000   13.030000    7.920000
  Q     19.280000   13.470000    8.570000
  Q     18.550000   13.040000    8.510000
  Q     14.590000    0.530000   16.510000
  Q     14.960000    1.880000   16.060000
  Q     15.000000    1.050000   16.010000
  Q      8.510000   17.500000   13.520000
  Q      7.940000   17.000000   12.160000
  Q      8.510000   17.400000   12.650000
  Q      3.200000   11.400000    7.450000
  Q      1.750000   10.660000    7.330000
  Q      2.480000   10.990000    7.730000
  Q     12.300000   17.650000    6.120000
  Q     12.110000   18.410000    4.800000
  Q     12.230000   18.340000    5.640000
  Q      6.030000    1.420000   10.550000
  Q      4.670000    0.810000   10.940000
  Q      5.220000    1.430000   10.830000
  Q     19.040000    5.780000   11.450000
  Q     19.370000    5.870000    9.920000
  Q     19.180000    6.180000   10.710000
  Q     13.740000   -0.330000    8.290000
  Q     14.660000    0.450000    9.280000
  Q     14.140000    0.340000    8.590000
  Q      6.770000   12.320000   20.140000
  Q      7.120000   10.860000   20.740000
  Q      6.800000   11.670000   20.730000
  Q     10.270000   20.020000    8.910000
  Q     11.590000   19.680000    9.630000
  Q     10.850000   20.050000    9.490000
  Q     14.530000   -0.070000   12.830000
  Q     14.930000    1.240000   13.480000
  Q     14.640000    0.760000   12.870000
  Q     16.380000    8.010000    4.560000
  Q     16.470000    6.840000    3.490000
  Q     16.200000    7.270000    4.210000
  Q      6.030000    1.640000   12.560000
  Q      7.350000    1.920000   13.160000
  Q      6.570000    1.570000   13.180000
  Q      3.480000    3.750000   11.050000
  Q      3.550000    5.250000   11.630000
  Q      3.680000    4.600000   11.060000
  Q      8.220000   16.280000   -0.420000
  Q      8.580000   14.970000    0.000000
  Q      8.390000   15.730000    0.150000
  Q     17.380000    9.900000    5.570000
  Q     16.550000    9.070000    6.540000
  Q     16.690000    9.490000    5.810000
  Q     10.050000    9.800000   21.100000
  Q      9.220000    9.360000   22.260000
  Q      9.330000    9.640000   21.510000
  Q      5.970000   10.500000    2.750000
  Q      7.300000   11.140000    2.420000
  Q      6.670000   10.620000    2.270000
  Q     10.050000    3.490000    4.860000
  Q     10.890000    4.480000    5.790000
  Q     10.640000    3.710000    5.450000
  Q      5.810000    5.460000   19.840000
  Q      6.730000    6.760000   19.800000
  Q      6.520000    5.940000   19.680000
  Q      7.930000   18.900000    8.300000
  Q      8.940000   18.160000    7.230000
  Q      8.520000   18.810000    7.610000
  Q     10.650000    0.700000   12.000000
  Q      9.650000   -0.170000   12.770000
  Q     10.220000    0.470000   12.680000

----------------------------
CARTESIAN COORDINATES (A.U.)
----------------------------
  NO LB      ZA    FRAG     MASS         X           Y           Z
   0 C     6.0000    0    12.011   22.279871   19.407487   23.375912
   1 H     1.0000    0     1.008   21.845234   20.768090   24.944385
   2 H     1.0000    0     1.008   24.207392   19.105131   23.016864
   3 C     6.0000    0    12.011   20.673604   20.390145   21.013755
   4 H     1.0000    0     1.008   20.749193   18.727186   19.709844
   5 H     1.0000    0     1.008   18.802775   20.484631   21.580672
   6 C     6.0000    0    12.011   21.618467   22.884583   19.861022
   7 H     1.0000    0     1.008   23.394810   22.544433   19.161823
   8 H     1.0000    0     1.008   22.072001   24.320775   21.146035
   9 C     6.0000    0    12.011   20.201172   23.848344   17.479967
  10 H     1.0000    0     1.008   19.464179   22.242077   16.383926
  11 H     1.0000    0     1.008   21.259419   25.171152   16.327234
  12 O     8.0000    0    15.999   17.914604   25.208947   18.387035
  13 H     1.0000    0     1.008   17.064227   25.643584   16.856357
  14 O     8.0000    0    15.999   21.448392   17.045330   24.471953
  15 H     1.0000    0     1.008   21.335008   15.628035   23.281426
  16 O     8.0000    0    15.999   24.793207   22.449946   29.838776
  17 H     1.0000    0     1.008   24.245186   23.772755   28.686043
  18 H     1.0000    0     1.008   23.413707   22.279871   31.048200
  19 O     8.0000    0    15.999   27.986844   22.053104   21.108241
  20 H     1.0000    0     1.008   27.892358   22.260974   19.350796
  21 H     1.0000    0     1.008   27.268748   23.697166   21.750748
  22 O     8.0000    0    15.999   26.966392   27.249851   20.182275
  23 H     1.0000    0     1.008   28.289200   27.590002   18.991748
  24 H     1.0000    0     1.008   25.379022   27.665591   19.407487
  25 O     8.0000    0    15.999   15.080015   21.089344   13.700514
  26 H     1.0000    0     1.008   15.892597   19.501974   14.154049
  27 H     1.0000    0     1.008   13.795001   21.372803   14.947734
  28 O     8.0000    0    15.999   18.254754   14.645378   20.087789
  29 H     1.0000    0     1.008   16.988638   14.380816   21.391700
  30 H     1.0000    0     1.008   19.161823   13.190288   20.371248
  31 O     8.0000    0    15.999   13.832795   19.747638   24.604234
  32 H     1.0000    0     1.008   13.927282   19.936611   26.437269
  33 H     1.0000    0     1.008   14.475302   18.141371   24.188495
  34 O     8.0000    0    15.999   22.941275   30.632461   18.103576
  35 H     1.0000    0     1.008   21.240522   30.708050   17.631145
  36 H     1.0000    0     1.008   22.771200   31.312762   19.898816
  37 O     8.0000    0    15.999   22.449946   11.678508   21.920823
  38 H     1.0000    0     1.008   22.412152   10.601364   20.503529
  39 H     1.0000    0     1.008   24.112905   12.302117   22.090899
  40 O     8.0000    0    15.999   18.878364   30.311207   15.212295
  41 H     1.0000    0     1.008   17.404378   29.952159   16.213850
  42 H     1.0000    0     1.008   18.254754   30.027748   13.454850
  43 O     8.0000    0    15.999   16.931946   15.779213   15.231193
  44 H     1.0000    0     1.008   17.517761   15.495754   16.969741
  45 H     1.0000    0     1.008   15.401268   14.739864   15.117809
  46 O     8.0000    0    15.999   29.574214   24.471953   32.219831
  47 H     1.0000    0     1.008   30.613563   25.190049   30.897022
  48 H     1.0000    0     1.008   27.892358   24.226289   31.501735
  49 O     8.0000    0    15.999   22.941275   25.416817   12.056453
  50 H     1.0000    0     1.008   21.807440   25.624686   10.658055
  51 H     1.0000    0     1.008   23.564885   27.155365   12.377706
  52 O     8.0000    0    15.999   15.363473   24.490851   22.657816
  53 H     1.0000    0     1.008   14.909939   22.733405   22.752303
  54 H     1.0000    0     1.008   16.005980   24.849899   20.900371
  55 O     8.0000    0    15.999   13.776104   29.857673   17.498864
  56 H     1.0000    0     1.008   13.039110   31.350557   18.349241
  57 H     1.0000    0     1.008   12.642268   29.630906   16.100467
  58 O     8.0000    0    15.999    8.560459   20.994857   23.357015
  59 H     1.0000    0     1.008    7.369932   20.654707   21.996412
  60 H     1.0000    0     1.008   10.185624   20.560220   23.054659
  61 O     8.0000    0    15.999   19.823227   10.204521   25.794762
  62 H     1.0000    0     1.008   21.146035   10.676953   24.509748
  63 H     1.0000    0     1.008   18.935056    8.654946   25.605789
  64 O     8.0000    0    15.999   31.142687   30.160029   23.394810
  65 H     1.0000    0     1.008   32.654468   30.103337   22.355460
  66 H     1.0000    0     1.008   29.706495   29.574214   22.449946
  67 O     8.0000    0    15.999   18.009090   17.442172   28.421481
  68 H     1.0000    0     1.008   18.746083   17.612248   26.701830
  69 H     1.0000    0     1.008   16.572898   18.557111   28.289200
  70 O     8.0000    0    15.999   27.325440   13.851693   21.278316
  71 H     1.0000    0     1.008   27.892358   15.231193   22.431049
  72 H     1.0000    0     1.008   27.325440   14.494199   19.483076
  73 O     8.0000    0    15.999   33.353666   21.845234   20.938166
  74 H     1.0000    0     1.008   31.539529   21.750748   21.221624
  75 H     1.0000    0     1.008   33.372564   22.242077   19.256309
  76 O     8.0000    0    15.999   30.424591   29.441933   16.402823
  77 H     1.0000    0     1.008   32.011961   30.008851   17.064227
  78 H     1.0000    0     1.008   30.613563   28.402584   14.834350
  79 O     8.0000    0    15.999   28.572659   17.857912   24.037316
  80 H     1.0000    0     1.008   28.289200   19.483076   23.130248
  81 H     1.0000    0     1.008   27.741180   17.801220   25.624686
  82 O     8.0000    0    15.999   12.396603   20.824782   18.141371
  83 H     1.0000    0     1.008   11.187179   19.331898   18.103576
  84 H     1.0000    0     1.008   13.757206   20.106686   19.010645
  85 O     8.0000    0    15.999   23.054659   20.673604   13.303672
  86 H     1.0000    0     1.008   22.808994   22.468844   12.925727
  87 H     1.0000    0     1.008   24.490851   20.919268   14.513097
  88 O     8.0000    0    15.999   23.035762   27.627796   28.723837
  89 H     1.0000    0     1.008   22.393255   28.024639   26.985289
  90 H     1.0000    0     1.008   24.339673   28.875015   28.875015
  91 O     8.0000    0    15.999   28.213611   22.166488   16.005980
  92 H     1.0000    0     1.008   28.421481   23.224734   14.550891
  93 H     1.0000    0     1.008   28.818324   20.635809   15.382371
  94 O     8.0000    0    15.999   10.185624   18.821672   12.245425
  95 H     1.0000    0     1.008    9.788781   19.067337   10.355699
  96 H     1.0000    0     1.008   11.886377   19.407487   12.585576
  97 O     8.0000    0    15.999   14.720967   14.607583   24.094008
  98 H     1.0000    0     1.008   14.872145   14.078460   25.832556
  99 H     1.0000    0     1.008   12.906829   14.928836   24.131803
 100 O     8.0000    0    15.999   12.302117   24.434159   10.809233
 101 H     1.0000    0     1.008   13.001316   24.717618    9.146274
 102 H     1.0000    0     1.008   13.851693   23.961727   11.659610
 103 O     8.0000    0    15.999   25.454611   16.610693   28.780529
 104 H     1.0000    0     1.008   23.942830   15.930391   28.043536
 105 H     1.0000    0     1.008   24.925488   18.198063   29.347447
 106 O     8.0000    0    15.999   16.402823   20.862577    7.426624
 107 H     1.0000    0     1.008   15.344576   20.843679    8.938405
 108 H     1.0000    0     1.008   17.234302   19.237412    7.426624
 109 O     8.0000    0    15.999   14.078460   20.749193   29.479728
 110 H     1.0000    0     1.008   12.528884   20.541323   30.500180
 111 H     1.0000    0     1.008   14.966631   22.072001   30.462385
 112 O     8.0000    0    15.999   24.509748   29.914365   13.076905
 113 H     1.0000    0     1.008   23.905036   29.952159   14.834350
 114 H     1.0000    0     1.008   26.134912   30.632461   12.963521
 115 O     8.0000    0    15.999   19.520871   21.013755   32.068652
 116 H     1.0000    0     1.008   19.501974   19.483076   31.123789
 117 H     1.0000    0     1.008   19.199618   22.449946   30.934817
 118 Q     0.6645    0     0.000   32.182036    5.877048   26.607344
 119 Q     0.6645    0     0.000   32.371009    8.069131   28.591556
 120 Q    -1.3290    0     0.000   32.824543    6.765220   27.741180
 121 Q     0.6645    0     0.000   12.528884   11.054898   27.797871
 122 Q     0.6645    0     0.000   11.584021   12.604473   29.933262
 123 Q    -1.3290    0     0.000   12.717857   11.924172   29.063988
 124 Q     0.6645    0     0.000   20.352350   30.084440   34.033968
 125 Q     0.6645    0     0.000   21.429494   28.194714   32.011961
 126 Q    -1.3290    0     0.000   20.446837   28.723837   33.164694
 127 Q     0.6645    0     0.000   11.848583   25.643584    4.535343
 128 Q     0.6645    0     0.000   13.719412   27.797871    4.232987
 129 Q    -1.3290    0     0.000   13.020213   26.550652    5.026672
 130 Q     0.6645    0     0.000   30.840331   33.712714    4.762110
 131 Q     0.6645    0     0.000   29.895467   32.730057    7.351035
 132 Q    -1.3290    0     0.000   30.953714   33.334769    6.330583
 133 Q     0.6645    0     0.000   38.588208   29.120680   16.289439
 134 Q     0.6645    0     0.000   40.402345   26.985289   15.835905
 135 Q    -1.3290    0     0.000   39.022845   27.778974   15.609138
 136 Q     0.6645    0     0.000   20.201172    3.949528   18.821672
 137 Q     0.6645    0     0.000   21.637364    1.133836   18.481522
 138 Q    -1.3290    0     0.000   20.919268    2.437747   19.218515
 139 Q     0.6645    0     0.000   20.541323   32.389906   37.435475
 140 Q     0.6645    0     0.000   19.615357   34.222940   35.281187
 141 Q    -1.3290    0     0.000   20.579118   33.145796   35.980386
 142 Q     0.6645    0     0.000   10.884823   34.903242    9.335247
 143 Q     0.6645    0     0.000   12.793446   35.167803   11.754097
 144 Q    -1.3290    0     0.000   11.395049   34.884344   10.998206
 145 Q     0.6645    0     0.000   17.479967    3.892836   24.453056
 146 Q     0.6645    0     0.000   16.497309    4.837699   27.060878
 147 Q    -1.3290    0     0.000   16.761871    4.932185   25.454611
 148 Q     0.6645    0     0.000   13.246980   40.459037   13.983973
 149 Q     0.6645    0     0.000   12.736754   41.101543   16.705179
 150 Q    -1.3290    0     0.000   12.358809   41.025954   15.174501
 151 Q     0.6645    0     0.000   30.046646    5.253439   34.676475
 152 Q     0.6645    0     0.000   27.382132    5.253439   34.166249
 153 Q    -1.3290    0     0.000   28.837221    5.631384   33.788303
 154 Q     0.6645    0     0.000   10.299007   35.092214   22.979070
 155 Q     0.6645    0     0.000   10.903720   37.208708   24.849899
 156 Q    -1.3290    0     0.000   10.601364   36.585098   23.394810
 157 Q     0.6645    0     0.000   11.281665   35.904797   17.385480
 158 Q     0.6645    0     0.000   12.717857   35.961488   19.974405
 159 Q    -1.3290    0     0.000   12.566679   35.678029   18.368138
 160 Q     0.6645    0     0.000   22.884583   25.775864   38.210262
 161 Q     0.6645    0     0.000   20.938166   26.437269   35.923694
 162 Q    -1.3290    0     0.000   21.618467   25.567995   37.152016
 163 Q     0.6645    0     0.000   15.193398   10.053343   13.133597
 164 Q     0.6645    0     0.000   17.952398   10.695850   13.492645
 165 Q    -1.3290    0     0.000   16.610693   10.015549   13.908384
 166 Q     0.6645    0     0.000    9.883268   28.459276   11.772994
 167 Q     0.6645    0     0.000   10.506877   31.445043   12.585576
 168 Q    -1.3290    0     0.000   10.714747   29.706495   12.472192
 169 Q     0.6645    0     0.000   29.971056   29.479728   29.649803
 170 Q     0.6645    0     0.000   31.634015   28.704940   27.306543
 171 Q    -1.3290    0     0.000   31.256070   28.912810   28.875015
 172 Q     0.6645    0     0.000    5.385719   24.982179    6.935295
 173 Q     0.6645    0     0.000    4.667624   24.018419    4.421959
 174 Q    -1.3290    0     0.000    5.555795   24.112905    5.688076
 175 Q     0.6645    0     0.000   19.577563   32.200933   30.235618
 176 Q     0.6645    0     0.000   20.238967   34.959933   30.859228
 177 Q    -1.3290    0     0.000   20.012200   33.712714   29.895467
 178 Q     0.6645    0     0.000    9.165172   36.320536   13.908384
 179 Q     0.6645    0     0.000    7.899055   38.323646   15.760316
 180 Q    -1.3290    0     0.000    8.522665   36.887454   15.287884
 181 Q     0.6645    0     0.000   32.616673   16.761871   26.021529
 182 Q     0.6645    0     0.000   34.204043   16.176056   28.213611
 183 Q    -1.3290    0     0.000   33.977276   16.497309   26.607344
 184 Q     0.6645    0     0.000   26.418371   27.004186   41.517283
 185 Q     0.6645    0     0.000   27.230954   29.366344   39.759838
 186 Q    -1.3290    0     0.000   26.229399   28.345892   40.629112
 187 Q     0.6645    0     0.000   24.056214   37.548858   27.325440
 188 Q     0.6645    0     0.000   22.960173   35.016625   27.722282
 189 Q    -1.3290    0     0.000   24.037316   35.999283   27.117570
 190 Q     0.6645    0     0.000    9.845473   27.287645   35.999283
 191 Q     0.6645    0     0.000    9.713192   25.038871   34.128454
 192 Q    -1.3290    0     0.000   10.242316   25.832556   35.432365
 193 Q     0.6645    0     0.000    6.916398   34.260735   28.119125
 194 Q     0.6645    0     0.000    9.694295   34.241838   28.818324
 195 Q    -1.3290    0     0.000    8.163617   34.147351   29.082885
 196 Q     0.6645    0     0.000   30.537974   16.572898   17.083124
 197 Q     0.6645    0     0.000   29.744289   14.172946   15.552446
 198 Q    -1.3290    0     0.000   29.555317   15.760316   16.062672
 199 Q     0.6645    0     0.000    3.779452   31.463940   12.623371
 200 Q     0.6645    0     0.000    5.763665   33.126899   11.432843
 201 Q    -1.3290    0     0.000    5.291233   31.785194   12.056453
 202 Q     0.6645    0     0.000    7.029781   17.555556   18.160268
 203 Q     0.6645    0     0.000    9.108480   15.590241   17.914604
 204 Q    -1.3290    0     0.000    8.484870   16.969741   18.349241
 205 Q     0.6645    0     0.000   12.453295   31.274968    1.965315
 206 Q     0.6645    0     0.000    9.996651   31.482837    3.363713
 207 Q    -1.3290    0     0.000   11.376151   32.068652    2.796795
 208 Q     0.6645    0     0.000    6.217199   11.017103   16.988638
 209 Q     0.6645    0     0.000    4.195192   12.037555   15.117809
 210 Q    -1.3290    0     0.000    5.650281   11.527329   15.590241
 211 Q     0.6645    0     0.000   37.700036   10.865925   26.739625
 212 Q     0.6645    0     0.000   35.659132    8.787227   26.437269
 213 Q    -1.3290    0     0.000   36.755173    9.864370   25.908145
 214 Q     0.6645    0     0.000   24.075111    4.837699   22.317666
 215 Q     0.6645    0     0.000   22.771200    7.218754   23.186940
 216 Q    -1.3290    0     0.000   23.942830    6.198302   23.111351
 217 Q     0.6645    0     0.000   27.552207   23.130248    9.184069
 218 Q     0.6645    0     0.000   25.908145   24.906590   10.941514
[...]
 332   Q   :   -0.130293561   -0.054472144   -0.267501572
 333   Q   :    0.206145539    0.243168336    0.009799030
 334   Q   :   -0.070274499   -0.184560354    0.268950250
 335   Q   :   -0.116699379    0.066039256    0.272908397
 336   Q   :    0.092610209    0.198957968   -0.181135765
 337   Q   :    0.020175547   -0.260006223   -0.084059223
 338   Q   :    0.040280768    0.177756911    0.209834246
 339   Q   :    0.193867678   -0.200246928   -0.117853392
 340   Q   :   -0.224042687    0.023413462   -0.108502333
 341   Q   :    0.157016225   -0.044580263   -0.236081439
 342   Q   :   -0.240474364   -0.199602693    0.046590283
 343   Q   :    0.079334015    0.242832459    0.194489905
 344   Q   :   -0.098988074   -0.268530380    0.171427645
 345   Q   :   -0.157121788    0.043326466   -0.281096974
 346   Q   :    0.267173507    0.226846212    0.107729353
 347   Q   :    0.068577758    0.212190582    0.201934892
 348   Q   :    0.166768141   -0.133670209   -0.138375473
 349   Q   :   -0.233245193   -0.075773543   -0.056969036
 350   Q   :    0.223955308   -0.201880215   -0.019343603
 351   Q   :    0.079372573    0.263911483   -0.048474406
 352   Q   :   -0.293011156   -0.060992461    0.069172636
 353   Q   :    0.052926086   -0.276556692   -0.006576364
 354   Q   :    0.185163645    0.222286087    0.002005192
 355   Q   :   -0.233435222    0.051716100    0.006558726
 356   Q   :   -0.074538618   -0.282040858    0.009593095
 357   Q   :    0.108427880    0.149410818    0.256827477
 358   Q   :   -0.031771505    0.134560352   -0.255213352
 359   Q   :    0.156659349   -0.024416525    0.267003440
 360   Q   :   -0.162493301    0.197852669   -0.087280082
 361   Q   :    0.009337383   -0.172307990   -0.173098002
 362   Q   :   -0.248152366   -0.001672332    0.166307482
 363   Q   :    0.017750918   -0.107327868   -0.236927686
 364   Q   :    0.232413087    0.108970139    0.081955484
 365   Q   :    0.089447467   -0.069994803   -0.291860730
 366   Q   :   -0.214255446    0.210210412    0.044998340
 367   Q   :    0.125904268   -0.144172201    0.240730856
 368   Q   :    0.216156894    0.220396320   -0.007725026
 369   Q   :   -0.267850025    0.050320054   -0.161654633
 370   Q   :    0.050168306   -0.255471124    0.169354520
 371   Q   :    0.274168289    0.007844015    0.026271165
 372   Q   :   -0.163456907   -0.078319118    0.190784532
 373   Q   :   -0.114101896    0.094031134   -0.223419255
 374   Q   :    0.110871687    0.265825509   -0.102027453
 375   Q   :    0.167858487   -0.248365351    0.021843073
 376   Q   :   -0.280556515   -0.019357091    0.069611168
 377   Q   :   -0.170342874   -0.015227254    0.219499782
 378   Q   :   -0.040632522    0.151122860   -0.255123393
 379   Q   :    0.222842871   -0.127472705    0.034363852
 380   Q   :    0.159078554   -0.191199011    0.101550930
 381   Q   :   -0.120270096    0.010972898   -0.273687562
 382   Q   :   -0.031676525    0.164351653    0.172810061
 383   Q   :   -0.224029003    0.004064618   -0.170892803
 384   Q   :    0.027793496   -0.166287544    0.199313717
 385   Q   :    0.184926860    0.157817553   -0.016450525
 386   Q   :    0.173272793    0.045356139   -0.188961968
 387   Q   :   -0.059998493   -0.227848654    0.130978847
 388   Q   :   -0.115750067    0.192472334    0.063548434
 389   Q   :    0.017230868    0.254174520    0.022213224
 390   Q   :   -0.035303176   -0.186139412    0.208770649
 391   Q   :    0.021344564   -0.077303722   -0.220320463
 392   Q   :   -0.085404780    0.213410575    0.117370585
 393   Q   :   -0.111416920   -0.203272764   -0.105867379
 394   Q   :    0.192924246   -0.012894531   -0.008443876
 395   Q   :   -0.190884580   -0.230449045   -0.055260662
 396   Q   :   -0.071311414    0.251086629    0.004759253
 397   Q   :    0.273627667   -0.025121599    0.040285678
 398   Q   :   -0.215019191   -0.014584468   -0.209537693
 399   Q   :    0.100834034    0.278323042    0.149049753
 400   Q   :    0.115496839   -0.268079033    0.066976648
 401   Q   :    0.245769529    0.112469017   -0.016875722
 402   Q   :   -0.231533248    0.046853828   -0.153619725
 403   Q   :   -0.024681179   -0.161525946    0.167221870
 404   Q   :    0.239435978    0.014504152   -0.074794481
 405   Q   :   -0.199995368    0.188551765    0.010112149
 406   Q   :   -0.044901800   -0.195820182    0.061532472
 407   Q   :   -0.017581982    0.273373228   -0.053734590
 408   Q   :    0.059069679   -0.126662753    0.228401634
 409   Q   :   -0.026580390   -0.148838082   -0.171559426
 410   Q   :   -0.076213931   -0.159525362   -0.242551159
 411   Q   :   -0.062434658   -0.059910347    0.268512562
 412   Q   :    0.135309529    0.217175083   -0.028954848
 413   Q   :    0.112684733    0.175743414   -0.187259017
 414   Q   :   -0.192013902   -0.191754538   -0.068764150
 415   Q   :    0.087314145    0.014188055    0.258871404
 416   Q   :    0.011712024    0.285440838    0.060581414
 417   Q   :   -0.006509218   -0.133374676   -0.243871763
 418   Q   :   -0.002151075   -0.156003521    0.184536546
 419   Q   :    0.195091289    0.158598936   -0.194459362
 420   Q   :   -0.275385071   -0.032524825   -0.033361632
 421   Q   :    0.089419379   -0.123412181    0.216910352
 422   Q   :   -0.106637342    0.257309306   -0.012264560
 423   Q   :   -0.045846990   -0.210067703   -0.171063174
 424   Q   :    0.154357523   -0.050765561    0.194458760
 425   Q   :    0.297974778   -0.026573044    0.038272475
 426   Q   :   -0.129547592    0.239984692    0.009760996
 427   Q   :   -0.157039435   -0.211903771   -0.050688060
 428   Q   :   -0.077228472   -0.278669580    0.117489382
 429   Q   :    0.072029445    0.010857596   -0.293930185
 430   Q   :   -0.001418875    0.276284111    0.174171520
 431   Q   :    0.033398067    0.263458930   -0.146765127
 432   Q   :   -0.198329409   -0.210417892   -0.094964729
 433   Q   :    0.164014484   -0.047437373    0.235635907
 434   Q   :   -0.053205957    0.196632318   -0.222489464
 435   Q   :    0.126626136   -0.244913398   -0.031221095
 436   Q   :   -0.079884720    0.043621231    0.246842982
 437   Q   :    0.284267506    0.067155184    0.071639314
 438   Q   :   -0.082603530   -0.217225771   -0.143890943
 439   Q   :   -0.193995869    0.154254537    0.069325674
 440   Q   :    0.062888634   -0.300319763    0.082716766
 441   Q   :   -0.247880487    0.139170667    0.054716492
 442   Q   :    0.191960867    0.157875920   -0.139333504
 443   Q   :   -0.109608114   -0.034371150   -0.231045372
 444   Q   :    0.149967091   -0.135986521    0.149124448
 445   Q   :   -0.052908847    0.177515823    0.087486388
 446   Q   :   -0.162288243   -0.127721358    0.145336230
 447   Q   :    0.049404477    0.259187354   -0.009485006
 448   Q   :    0.107999469   -0.128546591   -0.155682540
 449   Q   :   -0.195653687    0.214091496    0.086258984
 450   Q   :   -0.000075525   -0.128378196   -0.280822254
 451   Q   :    0.194760071   -0.077157683    0.196461315
 452   Q   :   -0.075216054   -0.247144899    0.055716419
 453   Q   :    0.214383554    0.065415147   -0.220549628
 454   Q   :   -0.125038657    0.184391196    0.168465808
 455   Q   :    0.016786083    0.274229866   -0.132562272
 456   Q   :    0.209478008   -0.170236469   -0.015571734
 457   Q   :   -0.233637099   -0.096851629    0.141362782
 458   Q   :   -0.166280213    0.231512018   -0.081822991
 459   Q   :    0.290213155    0.024031047   -0.074038999
 460   Q   :   -0.115927255   -0.251865752    0.153795877
 461   Q   :    0.245019784    0.148943147   -0.055205458
 462   Q   :    0.012694785   -0.267898303    0.143934532
 463   Q   :   -0.250377697    0.110204723   -0.087375583
 464   Q   :    0.148083442    0.093843344    0.205529993
 465   Q   :    0.094999450   -0.050722078   -0.280364397
 466   Q   :   -0.236593712   -0.053339563    0.071592384
 467   Q   :    0.214833377   -0.094037223    0.022680420
 468   Q   :   -0.241298889   -0.090576968   -0.055591352
 469   Q   :    0.015327103    0.178801972    0.030592915
 470   Q   :   -0.017083108    0.266878046    0.098320426
 471   Q   :    0.004990164   -0.053060266   -0.300988320
 472   Q   :    0.021129380   -0.214886624    0.203410876
 473   Q   :    0.125395140   -0.238687848    0.151995792
 474   Q   :   -0.285280677   -0.061004837   -0.182226326
 475   Q   :    0.161370588    0.302275313    0.028855391
 476   Q   :    0.050725989   -0.023200708    0.305473407
 477   Q   :    0.198952779   -0.008767854   -0.188627435
 478   Q   :   -0.253532484    0.017824810   -0.116687828
 479   Q   :   -0.269390529    0.020783292    0.191573302
 480   Q   :   -0.037466215   -0.211005306   -0.230937926
 481   Q   :    0.317121277    0.198353652    0.039600633
 482   Q   :    0.014984387    0.274610838   -0.015208368
 483   Q   :    0.184277459   -0.169652486   -0.093757524
 484   Q   :   -0.207088063   -0.110863772    0.111828427
 485   Q   :   -0.109633713   -0.117050616    0.280299825
 486   Q   :   -0.089210839   -0.063849088   -0.257680658
 487   Q   :    0.188077321    0.176947351   -0.019956482
 488   Q   :   -0.000620081   -0.129560818   -0.278817551
 489   Q   :   -0.223021567    0.175735314    0.101273411
 490   Q   :    0.221528779   -0.046328440    0.173496553
 491   Q   :    0.048484298   -0.231683589    0.159413892
 492   Q   :    0.218376225    0.197646808   -0.028055922
 493   Q   :   -0.271668185    0.036278015   -0.122151842
 494   Q   :    0.206973844    0.045875247   -0.177442204
 495   Q   :    0.010745834   -0.121570793    0.262932955
 496   Q   :   -0.212014505    0.088443668   -0.077209241
 497   Q   :    0.029681658   -0.174797510   -0.192690387
 498   Q   :   -0.021271142    0.270437503   -0.007417299
 499   Q   :   -0.010973080   -0.100451235    0.202929741
 500   Q   :   -0.128771805   -0.080862256    0.233402451
 501   Q   :   -0.121441944    0.169271843   -0.213328745
 502   Q   :    0.248706715   -0.086666684   -0.028437657
 503   Q   :   -0.180479088    0.114734724    0.150735791
 504   Q   :    0.025850460   -0.274831497   -0.060438759
 505   Q   :    0.151318482    0.159069767   -0.070063859
 506   Q   :   -0.300353707    0.008059008   -0.069646233
 507   Q   :    0.161947558   -0.227493776    0.030590377
 508   Q   :    0.127035647    0.222162569    0.039658611
 509   Q   :    0.105682833   -0.193242079   -0.175281368
 510   Q   :    0.149081757    0.231752532    0.100998932
 511   Q   :   -0.262508059   -0.031134674    0.068472920
 512   Q   :   -0.168035784    0.009628688   -0.234682425
 513   Q   :    0.145383131   -0.216632800    0.091236955
 514   Q   :    0.030201692    0.203979362    0.150202923
 515   Q   :    0.220248222   -0.124081226   -0.130009312
 516   Q   :   -0.223628318   -0.148566618    0.098433383
 517   Q   :    0.008589263    0.270746210    0.020378023
 518   Q   :   -0.285865454   -0.004689345    0.102420978
 519   Q   :    0.164337235    0.233793883    0.019730129
 520   Q   :    0.119307911   -0.236343239   -0.123265584
 521   Q   :    0.105560821   -0.144975508    0.203324272
 522   Q   :    0.144195023    0.111586977   -0.215965817
 523   Q   :   -0.249758916    0.034514553    0.010786322
 524   Q   :    0.117176617    0.004819578    0.245835265
 525   Q   :    0.095853703    0.133269889   -0.229934733
 526   Q   :   -0.208670786   -0.143103923   -0.011548633
 527   Q   :   -0.177127801   -0.061472142   -0.234816200
 528   Q   :    0.113147886   -0.172010082    0.163510512
 529   Q   :    0.058795180    0.233688801    0.066994841
 530   Q   :    0.110665940    0.130615293   -0.227767133
 531   Q   :   -0.264222236   -0.044016845    0.063749805
 532   Q   :    0.145810635   -0.086713135    0.164350633
 533   Q   :   -0.153710271   -0.109654444   -0.201330848
 534   Q   :    0.212020191   -0.112690611    0.174946947
 535   Q   :   -0.064184028    0.230407220    0.020940799
 536   Q   :    0.088922323   -0.197364138   -0.169905553
 537   Q   :    0.120612759    0.143242890    0.197880610
 538   Q   :   -0.213824001    0.062376826   -0.040853156
 539   Q   :    0.284171924    0.001841129   -0.098311765
 540   Q   :   -0.157539708    0.275815054    0.008624691
 541   Q   :   -0.127319886   -0.270181251    0.089985309
 542   Q   :    0.099055391   -0.085791457    0.223176887
 543   Q   :    0.081577219    0.209165773   -0.164514382
 544   Q   :   -0.187195162   -0.126154135   -0.057064046
 545   Q   :   -0.093419068    0.220302391   -0.148532598
 546   Q   :    0.297456739   -0.045869669    0.046074798
 547   Q   :   -0.213303150   -0.170838929    0.113148698
 548   Q   :    0.054729652    0.267989446   -0.153171140
 549   Q   :   -0.217124345   -0.165397094   -0.094745793
 550   Q   :    0.170443372   -0.094720364    0.242925310
 551   Q   :   -0.214641444    0.124203155    0.160101216
 552   Q   :    0.277038710    0.160453658   -0.087162825
 553   Q   :   -0.056411734   -0.280731769   -0.066973083
 554   Q   :   -0.252736376    0.105804763   -0.042939207
 555   Q   :    0.156114222    0.025137210    0.233714418
 556   Q   :    0.100036217   -0.129808797   -0.209290436
 557   Q   :   -0.202339798   -0.001241029   -0.209101160
 558   Q   :    0.233542360    0.133522907    0.015172771
 559   Q   :   -0.041315159   -0.139112425    0.199526944
 560   Q   :   -0.162138610   -0.179619352    0.196485115
 561   Q   :   -0.032385560    0.285088558    0.025172323
 562   Q   :    0.193489521   -0.109852590   -0.220605902
 563   Q   :   -0.000712944    0.011129136    0.245907377
 564   Q   :   -0.193433145   -0.138948658   -0.156398503
 565   Q   :    0.183294847    0.111434661   -0.094688398
 566   Q   :    0.204667695    0.118725246   -0.095015836
 567   Q   :   -0.212675557   -0.089368120   -0.124678949
 568   Q   :    0.013374850   -0.045192111    0.214570710
 569   Q   :    0.024201336   -0.240615648    0.148628581
 570   Q   :   -0.037128587    0.006440013   -0.276970185
 571   Q   :    0.008243994    0.234202798    0.132704091
 572   Q   :    0.251382006   -0.013027203   -0.083899175
 573   Q   :   -0.189753499   -0.235985763    0.038504481
 574   Q   :   -0.073375334    0.253165280    0.036841833
 575   Q   :   -0.045862640   -0.138553015    0.223392764
 576   Q   :    0.058475855   -0.108425234   -0.247644093
 577   Q   :   -0.019209682    0.233683180    0.014055361
 578   Q   :   -0.143265296   -0.254805491   -0.095329568
 579   Q   :    0.161231796    0.017273852    0.220078286
 580   Q   :   -0.017481853    0.234106688   -0.124670696
 581   Q   :    0.009415152    0.188299917   -0.187541874
 582   Q   :    0.108253453   -0.248575662   -0.010093968
 583   Q   :   -0.118481189    0.059300367    0.197917320
 584   Q   :   -0.216315857   -0.018922117   -0.225670595
 585   Q   :    0.241160169   -0.135872905    0.039455497
 586   Q   :   -0.027632917    0.159156766    0.181604502
 587   Q   :   -0.033036783   -0.301700586   -0.007098743
 588   Q   :    0.109550210    0.164895804    0.220305722
 589   Q   :   -0.078901214    0.134686065   -0.212379650
 590   Q   :    0.069876965    0.250908117    0.100343044
 591   Q   :    0.084560576   -0.125095491   -0.225666137
 592   Q   :   -0.143069575   -0.122690490    0.118626975
 593   Q   :   -0.178893510    0.038566249   -0.230498723
 594   Q   :    0.235996345    0.115191136   -0.026742620
 595   Q   :   -0.066818020   -0.163097733    0.263647449
 596   Q   :   -0.072920363   -0.262135146    0.009564891
 597   Q   :   -0.053461464    0.195240917    0.188406612
 598   Q   :    0.114853430    0.067049064   -0.190755675
 599   Q   :   -0.065402449    0.196534363   -0.228359221
 600   Q   :    0.077074213   -0.305960574   -0.075424137
 601   Q   :   -0.012820532    0.105040152    0.297954009
 602   Q   :    0.233719177    0.136622301   -0.080264409
 603   Q   :   -0.030152232   -0.132404256    0.236064739
 604   Q   :   -0.204401604   -0.007349515   -0.145395278
 605   Q   :    0.249454250    0.047433850   -0.112524573
 606   Q   :   -0.027041584   -0.115203566    0.303424324
 607   Q   :   -0.213550953    0.072555914   -0.174078312
 608   Q   :   -0.217802008   -0.013317954    0.156046436
 609   Q   :    0.210768187    0.205463789    0.059885932
 610   Q   :    0.015310063   -0.185496747   -0.228462429
 611   Q   :   -0.201425049   -0.064923746   -0.192681781
 612   Q   :    0.053895197    0.227870160    0.089043887
 613   Q   :    0.143250022   -0.162091062    0.092182745
 614   Q   :   -0.239355893   -0.139606767    0.052643454
 615   Q   :    0.051317716    0.258107050    0.041195091
 616   Q   :    0.177173294   -0.130027670   -0.085443789
 617   Q   :   -0.148470722    0.014779791    0.159613519
 618   Q   :    0.125989285   -0.216091374   -0.126513319
 619   Q   :    0.029990328    0.194612095   -0.041294216
 620   Q   :    0.134404561    0.064328329   -0.237913345
 621   Q   :   -0.189358229   -0.213017858    0.004727284
 622   Q   :    0.061106869    0.131760730    0.246882700

Difference to translation invariance:
           :   -0.0005774022   -0.0005456890   -0.0000725575

Difference to rotation invariance:
           :    0.0183888950   -0.0116869649    0.0031343330

Norm of the cartesian gradient     ...    6.2852302858
RMS gradient                       ...    0.1455007979
MAX gradient                       ...    0.3171212766

-------
TIMINGS
-------

Total SCF gradient time            ...      271.851 sec

One electron gradient       ....      30.613 sec  ( 11.3%)
RI-J Coulomb gradient       ....      13.566 sec  (  5.0%)
COSX gradient               ....     178.169 sec  ( 65.5%)
XC gradient                 ....      19.699 sec  (  7.2%)

Maximum memory used throughout the entire SCFGRAD-calculation: 969.9 MB

                            ***************************************
                            *     ORCA property calculations      *
                            ***************************************

                                    ---------------------
                                    Active property flags
                                    ---------------------
   (+) Dipole Moment


------------------------------------------------------------------------------
                       ORCA ELECTRIC PROPERTIES CALCULATION
------------------------------------------------------------------------------

Dipole Moment Calculation                       ... on
Quadrupole Moment Calculation                   ... off
Polarizability Calculation                      ... off
GBWName                                         ... final013.orca.gbw
Electron density                                ... final013.orca.scfp
The origin for moment calculation is the CENTER OF MASS  = (20.862732, 21.728422 20.650745)

-------------
DIPOLE MOMENT
-------------
                                X             Y             Z
Electronic contribution:     -0.72277       0.48592       1.09037
Nuclear contribution   :     -7.57360       5.60301     -23.66214
                        -----------------------------------------
Total Dipole Moment    :     -8.29637       6.08893     -22.57177
                        -----------------------------------------
Magnitude (a.u.)       :     24.80705
Magnitude (Debye)      :     63.05450



--------------------
Rotational spectrum 
--------------------
 
Rotational constants in cm-1:     0.001482     0.001354     0.001031 
Rotational constants in MHz :    44.415922    40.580287    30.907945 

 Dipole components along the rotational axes: 
x,y,z [a.u.] :    22.513956     9.942653    -3.107245 
x,y,z [Debye]:    57.225927    25.272215    -7.897989 

 

Timings for individual modules:

Sum of individual times         ...     1103.419 sec (=  18.390 min)
GTO integral calculation        ...       14.922 sec (=   0.249 min)   1.4 %
SCF iterations                  ...      812.006 sec (=  13.533 min)  73.6 %
SCF Gradient evaluation         ...      276.491 sec (=   4.608 min)  25.1 %
                             ****ORCA TERMINATED NORMALLY****
TOTAL RUN TIME: 0 days 0 hours 18 minutes 31 seconds 854 msec
