
                                 *****************
                                 * O   R   C   A *
                                 *****************

                                            #,                                       
                                            ###                                      
                                            ####                                     
                                            #####                                    
                                            ######                                   
                                           ########,                                 
                                     ,,################,,,,,                         
                               ,,#################################,,                 
                          ,,##########################################,,             
                       ,#########################################, ''#####,          
                    ,#############################################,,   '####,        
                  ,##################################################,,,,####,       
                ,###########''''           ''''###############################       
              ,#####''   ,,,,##########,,,,          '''####'''          '####       
            ,##' ,,,,###########################,,,                        '##       
           ' ,,###''''                  '''############,,,                           
         ,,##''                                '''############,,,,        ,,,,,,###''
      ,#''                                            '''#######################'''  
     '                                                          ''''####''''         
             ,#######,   #######,   ,#######,      ##                                
            ,#'     '#,  ##    ##  ,#'     '#,    #''#        ######   ,####,        
            ##       ##  ##   ,#'  ##            #'  '#       #        #'  '#        
            ##       ##  #######   ##           ,######,      #####,   #    #        
            '#,     ,#'  ##    ##  '#,     ,#' ,#      #,         ##   #,  ,#        
             '#######'   ##     ##  '#######'  #'      '#     #####' # '####'        



                  #######################################################
                  #                        -***-                        #
                  #          Department of theory and spectroscopy      #
                  #    Directorship and core code : Frank Neese         #
                  #        Max Planck Institute fuer Kohlenforschung    #
                  #                Kaiser Wilhelm Platz 1               #
                  #                 D-45470 Muelheim/Ruhr               #
                  #                      Germany                        #
                  #                                                     #
                  #                  All rights reserved                #
                  #                        -***-                        #
                  #######################################################


                         Program Version 5.0.3 -  RELEASE  -


 With contributions from (in alphabetic order):
   Daniel Aravena         : Magnetic Suceptibility
   Michael Atanasov       : Ab Initio Ligand Field Theory (pilot matlab implementation)
   Alexander A. Auer      : GIAO ZORA, VPT2 properties, NMR spectrum
   Ute Becker             : Parallelization
   Giovanni Bistoni       : ED, misc. LED, open-shell LED, HFLD
   Martin Brehm           : Molecular dynamics
   Dmytro Bykov           : SCF Hessian
   Vijay G. Chilkuri      : MRCI spin determinant printing, contributions to CSF-ICE
   Dipayan Datta          : RHF DLPNO-CCSD density
   Achintya Kumar Dutta   : EOM-CC, STEOM-CC
   Dmitry Ganyushin       : Spin-Orbit,Spin-Spin,Magnetic field MRCI
   Miquel Garcia          : C-PCM and meta-GGA Hessian, CC/C-PCM, Gaussian charge scheme
   Yang Guo               : DLPNO-NEVPT2, F12-NEVPT2, CIM, IAO-localization
   Andreas Hansen         : Spin unrestricted coupled pair/coupled cluster methods
   Benjamin Helmich-Paris : MC-RPA, TRAH-SCF, COSX integrals
   Lee Huntington         : MR-EOM, pCC
   Robert Izsak           : Overlap fitted RIJCOSX, COSX-SCS-MP3, EOM
   Marcus Kettner         : VPT2
   Christian Kollmar      : KDIIS, OOCD, Brueckner-CCSD(T), CCSD density, CASPT2, CASPT2-K
   Simone Kossmann        : Meta GGA functionals, TD-DFT gradient, OOMP2, MP2 Hessian
   Martin Krupicka        : Initial AUTO-CI
   Lucas Lang             : DCDCAS
   Marvin Lechner         : AUTO-CI (C++ implementation), FIC-MRCC
   Dagmar Lenk            : GEPOL surface, SMD
   Dimitrios Liakos       : Extrapolation schemes; Compound Job, initial MDCI parallelization
   Dimitrios Manganas     : Further ROCIS development; embedding schemes
   Dimitrios Pantazis     : SARC Basis sets
   Anastasios Papadopoulos: AUTO-CI, single reference methods and gradients
   Taras Petrenko         : DFT Hessian,TD-DFT gradient, ASA, ECA, R-Raman, ABS, FL, XAS/XES, NRVS
   Peter Pinski           : DLPNO-MP2, DLPNO-MP2 Gradient
   Christoph Reimann      : Effective Core Potentials
   Marius Retegan         : Local ZFS, SOC
   Christoph Riplinger    : Optimizer, TS searches, QM/MM, DLPNO-CCSD(T), (RO)-DLPNO pert. Triples
   Tobias Risthaus        : Range-separated hybrids, TD-DFT gradient, RPA, STAB
   Michael Roemelt        : Original ROCIS implementation
   Masaaki Saitow         : Open-shell DLPNO-CCSD energy and density
   Barbara Sandhoefer     : DKH picture change effects
   Avijit Sen             : IP-ROCIS
   Kantharuban Sivalingam : CASSCF convergence, NEVPT2, FIC-MRCI
   Bernardo de Souza      : ESD, SOC TD-DFT
   Georgi Stoychev        : AutoAux, RI-MP2 NMR, DLPNO-MP2 response
   Willem Van den Heuvel  : Paramagnetic NMR
   Boris Wezisla          : Elementary symmetry handling
   Frank Wennmohs         : Technical directorship


 We gratefully acknowledge several colleagues who have allowed us to
 interface, adapt or use parts of their codes:
   Stefan Grimme, W. Hujo, H. Kruse, P. Pracht,  : VdW corrections, initial TS optimization,
                  C. Bannwarth, S. Ehlert          DFT functionals, gCP, sTDA/sTD-DF
   Ed Valeev, F. Pavosevic, A. Kumar             : LibInt (2-el integral package), F12 methods
   Garnet Chan, S. Sharma, J. Yang, R. Olivares  : DMRG
   Ulf Ekstrom                                   : XCFun DFT Library
   Mihaly Kallay                                 : mrcc  (arbitrary order and MRCC methods)
   Jiri Pittner, Ondrej Demel                    : Mk-CCSD
   Frank Weinhold                                : gennbo (NPA and NBO analysis)
   Christopher J. Cramer and Donald G. Truhlar   : smd solvation model
   Lars Goerigk                                  : TD-DFT with DH, B97 family of functionals
   V. Asgeirsson, H. Jonsson                     : NEB implementation
   FAccTs GmbH                                   : IRC, NEB, NEB-TS, DLPNO-Multilevel, CI-OPT
                                                   MM, QMMM, 2- and 3-layer-ONIOM, Crystal-QMMM,
                                                   LR-CPCM, SF, NACMEs, symmetry and pop. for TD-DFT,
                                                   nearIR, NL-DFT gradient (VV10), updates on ESD,
                                                   ML-optimized integration grids
   S Lehtola, MJT Oliveira, MAL Marques          : LibXC Library
   Liviu Ungur et al                             : ANISO software


 Your calculation uses the libint2 library for the computation of 2-el integrals
 For citations please refer to: http://libint.valeyev.net

 Your ORCA version has been built with support for libXC version: 5.1.0
 For citations please refer to: https://tddft.org/programs/libxc/

 This ORCA versions uses:
   CBLAS   interface :  Fast vector & matrix operations
   LAPACKE interface :  Fast linear algebra routines
   SCALAPACK package :  Parallel linear algebra routines
   Shared memory     :  Shared parallel matrices
   BLAS/LAPACK       :  OpenBLAS 0.3.15  USE64BITINT DYNAMIC_ARCH NO_AFFINITY SkylakeX SINGLE_THREADED
        Core in use  :  SkylakeX
   Copyright (c) 2011-2014, The OpenBLAS Project


================================================================================

----- Orbital basis set information -----
Your calculation utilizes the basis: def2-SVP
   F. Weigend and R. Ahlrichs, Phys. Chem. Chem. Phys. 7, 3297 (2005).

The basis set includes element-specific modifications.

Your calculation utilizes the basis: aug-cc-pVTZ 
    H, B-Ne : Obtained from the ccRepo (grant-hill.group.shef.ac.uk/ccrepo) Feb. 2017
              R. A. Kendall, T. H. Dunning, Jr., R. J. Harrison, J. Chem. Phys. 96, 6796 (1992)
         He : Obtained from the ccRepo (grant-hill.group.shef.ac.uk/ccrepo) Feb. 2017
              D. E. Woon, T. H. Dunning, Jr., J. Chem. Phys. 100, 2975 (1994)
  Li-Be, Na : Obtained from the ccRepo (grant-hill.group.shef.ac.uk/ccrepo) Feb. 2017
              B. P. Prascher, D. E. Woon, K. A. Peterson, T. H. Dunning, Jr., A. K. Wilson, Theor. Chem. Acc. 128, 69 (2011)
         Mg : Obtained from the Peterson Research Group Website (tyr0.chem.wsu.edu/~kipeters) Feb. 2017
              B. P. Prascher, D. E. Woon, K. A. Peterson, T. H. Dunning, Jr., A. K. Wilson, Theor. Chem. Acc. 128, 69 (2011)
      Al-Ar : Obtained from the ccRepo (grant-hill.group.shef.ac.uk/ccrepo) Feb. 2017
              D. E. Woon, T. H. Dunning, Jr., J. Chem. Phys. 98, 1358 (1993)
      Sc-Zn : Obtained from the ccRepo (grant-hill.group.shef.ac.uk/ccrepo) Feb. 2017
              N. B. Balabanov, K. A. Peterson, J. Chem. Phys. 123, 064107 (2005)
              N. B. Balabanov, K. A. Peterson, J. Chem. Phys. 125, 074110 (2006)
      Ga-Kr : Obtained from the ccRepo (grant-hill.group.shef.ac.uk/ccrepo) Feb. 2017
              A. K. Wilson, D. E. Woon, K. A. Peterson, T. H. Dunning, Jr., J. Chem. Phys. 110, 7667 (1999)
     Ag, Au : Obtained from the Peterson Research Group Website (tyr0.chem.wsu.edu/~kipeters) Feb. 2017
              K. A. Peterson, C. Puzzarini, Theor. Chem. Acc. 114, 283 (2005)

Your calculation utilizes the basis: cc-pVTZ 
       H, B-Ne : Obtained from the ccRepo (grant-hill.group.shef.ac.uk/ccrepo) Feb. 2017
                 T. H. Dunning, Jr., J. Chem. Phys. 90, 1007 (1989)
            He : Obtained from the ccRepo (grant-hill.group.shef.ac.uk/ccrepo) Feb. 2017
                 D. E. Woon, T. H. Dunning, Jr., J. Chem. Phys. 100, 2975 (1994)
  Li-Be, Na-Mg : Obtained from the ccRepo (grant-hill.group.shef.ac.uk/ccrepo) Feb. 2017
                 B. P. Prascher, D. E. Woon, K. A. Peterson, T. H. Dunning, Jr., A. K. Wilson, Theor. Chem. Acc. 128, 69 (2011)
         Al-Ar : Obtained from the ccRepo (grant-hill.group.shef.ac.uk/ccrepo) Feb. 2017
                 D. E. Woon, T. H. Dunning, Jr., J. Chem. Phys. 98, 1358 (1993)
            Ca : Obtained from the Peterson Research Group Website (tyr0.chem.wsu.edu/~kipeters) Feb. 2017
                 J. Koput, K. A. Peterson, J. Phys. Chem. 106, 9595 (2002)
         Sc-Zn : Obtained from the ccRepo (grant-hill.group.shef.ac.uk/ccrepo) Feb. 2017
                 N. B. Balabanov, K. A. Peterson, J. Chem. Phys. 123, 064107 (2005)
                 N. B. Balabanov, K. A. Peterson, J. Chem. Phys. 125, 074110 (2006)
         Ga-Kr : Obtained from the ccRepo (grant-hill.group.shef.ac.uk/ccrepo) Feb. 2017
                 A. K. Wilson, D. E. Woon, K. A. Peterson, T. H. Dunning, Jr., J. Chem. Phys. 110, 7667 (1999)
             Y : Obtained from the ccRepo (grant-hill.group.shef.ac.uk/ccrepo) Feb. 2017
                 K. A. Peterson, D. Figgen, M. Dolg, H. Stoll, J. Chem. Phys. 126, 124101 (2007)
        Ag, Au : Obtained from the Peterson Research Group Website (tyr0.chem.wsu.edu/~kipeters) Feb. 2017
                 K. A. Peterson, C. Puzzarini, Theor. Chem. Acc. 114, 283 (2005)

----- AuxJ basis set information -----
Your calculation utilizes the auxiliary basis: def2/J
   F. Weigend, Phys. Chem. Chem. Phys. 8, 1057 (2006).

================================================================================
                                        WARNINGS
                       Please study these warnings very carefully!
================================================================================

WARNING: The globally-selected AuxJ basis set is optimized for use with ECPs
         Make sure a suitable alternative is explicitly given all heavy elements (Z>36)

INFO   : the flag for use of the SHARK integral package has been found!

================================================================================
                                       INPUT FILE
================================================================================
NAME = final069.orca.inp
|  1> ! NoMOPrint PrintBasis #MINIPRINT SMALLPRINT LARGEPRINT
|  2> ! ALLPOP XYZFILE
|  3> #! BP86 3-21G   TightSCF
|  4> ! ENGRAD
|  5> ! B3LYP NormalPNO PModel #DecontractAux
|  6> #! VerySlowConv 
|  7>  %maxcore 5000
|  8>  %scf  maxiter   500  end 
|  9> 
| 10> %pal
| 11>     nprocs 32
| 12> end
| 13> 
| 14> %basis
| 15>     NewGTO O    # New basis for oxygen
| 16>         "aug-cc-pVTZ"
| 17>     end
| 18>     NewGTO C    # New basis for carbon
| 19>         "aug-cc-pVTZ"
| 20>     end
| 21>     NewGTO H    # New basis for hydrogen
| 22>         "cc-pVTZ"
| 23>     end
| 24> end
| 25> 
| 26> * xyz 0   1
| 27>   C  12.92  10.38  10.73  #1
| 28>   H  13.71  9.77  10.99  #2
| 29>   H  13.29  11.39  10.52  #3
| 30>   C  12  10.46  11.99  #4
| 31>   H  11.55  9.43  12.1  #5
| 32>   H  12.64  10.62  12.85  #6
| 33>   C  10.89  11.49  11.97  #7
| 34>   H  11.21  12.45  11.59  #8
| 35>   H  10.52  11.66  12.96  #9
| 36>   C  9.75  11.06  11.04  #10
| 37>   H  9.28  10.08  11.36  #11
| 38>   H  10.13  11.06  10.02  #12
| 39>   O  8.65  12.04  11.16  #13
| 40>   H  8.17  12.03  12.05  #14
| 41>   O  12.32  9.85  9.63  #15
| 42>   H  12.93  9.98  8.92  #16
| 43>   O  6.72  8.84  12.02  #17
| 44>   H  6.2  9.57  11.5  #18
| 45>   H  6.05  8.3  12.51  #19
| 46>   O  13.85  9.74  7.11  #20
| 47>   H  14.75  10.13  7.32  #21
| 48>   H  13.33  10.5  6.89  #22
| 49>   O  12.73  6.61  11.9  #23
| 50>   H  12.6  5.75  12.34  #24
| 51>   H  12.08  6.74  11.18  #25
| 52>   O  5.6  10.93  10.35  #26
| 53>   H  5.07  10.59  9.61  #27
| 54>   H  6.23  11.57  9.95  #28
| 55>   O  14.79  7.65  8.35  #29
| 56>   H  14.76  7.81  9.3  #30
| 57>   H  14.26  8.23  7.77  #31
| 58>   O  12.64  4.25  13.44  #32
| 59>   H  13.33  4.29  14.12  #33
| 60>   H  12.67  3.39  12.99  #34
| 61>   O  15.18  8.97  4.52  #35
| 62>   H  15.21  8  4.35  #36
| 63>   H  14.66  9.18  5.34  #37
| 64>   O  10.05  5.86  13.28  #38
| 65>   H  10.7  6.45  12.88  #39
| 66>   H  10.43  5.01  13.55  #40
| 67>   O  6.95  11.16  13.97  #41
| 68>   H  6.73  10.43  13.46  #42
| 69>   H  6.08  11.25  14.39  #43
| 70>   O  7.73  10.22  8.03  #44
| 71>   H  8.09  9.8  7.21  #45
| 72>   H  8.3  11  8.02  #46
| 73>   O  9.17  12.61  7.9  #47
| 74>   H  8.96  13.51  7.55  #48
| 75>   H  9.11  12.69  8.81  #49
| 76>   O  8.44  8.25  9.73  #50
| 77>   H  8.02  8.14  10.54  #51
| 78>   H  8.21  9.11  9.32  #52
| 79>   O  5  9.71  7.65  #53
| 80>   H  5.91  10.14  7.86  #54
| 81>   H  4.96  8.82  7.99  #55
| 82>   O  10.75  14.06  14.19  #56
| 83>   H  11.08  14.63  14.89  #57
| 84>   H  9.8  13.94  14.45  #58
| 85>   O  3.88  10.45  12.74  #59
| 86>   H  3.35  9.7  12.61  #60
| 87>   H  4.23  10.74  11.85  #61
| 88>   O  12.42  11.04  15.55  #62
| 89>   H  13.2  11.59  15.62  #63
| 90>   H  11.67  11.67  15.33  #64
| 91>   O  6.19  13.18  8.67  #65
| 92>   H  6.1  12.97  7.73  #66
| 93>   H  6.61  14.04  8.91  #67
| 94>   O  16.34  9.82  12.12  #68
| 95>   H  17.26  9.55  12.02  #69
| 96>   H  16.17  10.21  12.94  #70
| 97>   O  3.42  13.11  9.81  #71
| 98>   H  3.35  13.19  10.8  #72
| 99>   H  4.33  13.07  9.6  #73
|100>   O  17.74  8.03  8.95  #74
|101>   H  16.95  8.44  8.66  #75
|102>   H  17.68  7.06  8.89  #76
|103>   O  5.1  6.93  13.61  #77
|104>   H  4.51  6.1  13.74  #78
|105>   H  5.9  6.73  14.08  #79
|106>   O  13.85  5.14  7.46  #80
|107>   H  14.05  6.04  7.71  #81
|108>   H  13.28  4.7  8.18  #82
|109>   O  8.05  13.83  14.37  #83
|110>   H  7.35  14.17  14.94  #84
|111>   H  7.7  12.97  14.25  #85
|112>   O  11.95  12.02  6.46  #86
|113>   H  11.32  12.16  7.22  #87
|114>   H  12.7  12.66  6.67  #88
|115>   O  16.85  5.47  9.57  #89
|116>   H  16.3  5.19  8.8  #90
|117>   H  16.2  5.99  10.18  #91
|118>   O  16.54  10.39  7.3  #92
|119>   H  17.22  9.78  6.93  #93
|120>   H  17.05  10.98  7.85  #94
|121>   O  11.04  7.27  9.96  #95
|122>   H  11.56  8.1  9.8  #96
|123>   H  10.08  7.54  9.81  #97
|124>   O  9.5  15.02  11.26  #98
|125>   H  9.51  14.14  11.66  #99
|126>   H  10.38  15.17  10.84  #100
|127>   O  15.24  7.48  11.31  #101
|128>   H  15.6  8.32  11.74  #102
|129>   H  14.3  7.26  11.53  #103
|130>   Q  0.6645  9.55$  19.57$  8.38$
|131>   Q  0.6645  9.43$  20.1$  9.87$
|132>   Q  -1.3290  9.33$  19.54$  9.23$
|133>   Q  0.6645  7.77$  17.14$  15.9$
|134>   Q  0.6645  6.99$  17.53$  17.19$
|135>   Q  -1.3290  7.25$  16.98$  16.56$
|136>   Q  0.6645  6$  19.02$  14.55$
|137>   Q  0.6645  5.5$  20.48$  14.94$
|138>   Q  -1.3290  6.07$  19.83$  14.87$
|139>   Q  0.6645  18.2$  14.1$  8.22$
|140>   Q  0.6645  18.65$  15.32$  9.04$
|141>   Q  -1.3290  18.36$  14.95$  8.38$
|142>   Q  0.6645  16.52$  2.53$  9.13$
|143>   Q  0.6645  17.18$  3.7$  9.94$
|144>   Q  -1.3290  16.89$  2.87$  9.82$
|145>   Q  0.6645  6.4$  10.05$  18.53$
|146>   Q  0.6645  6.9$  8.83$  19.15$
|147>   Q  -1.3290  6.41$  9.24$  18.63$
|148>   Q  0.6645  19.72$  3.2$  9.41$
|149>   Q  0.6645  19.92$  4.67$  9.58$
|150>   Q  -1.3290  20.02$  3.87$  9.8$
|151>   Q  0.6645  11.99$  16.39$  15.99$
|152>   Q  0.6645  10.71$  17.04$  15.27$
|153>   Q  -1.3290  11.25$  16.44$  15.56$
|154>   Q  0.6645  2.11$  14.24$  13.11$
|155>   Q  0.6645  0.81$  15.1$  12.9$
|156>   Q  -1.3290  1.43$  14.73$  13.36$
|157>   Q  0.6645  13.73$  17.25$  16.41$
|158>   Q  0.6645  12.98$  17.16$  17.8$
|159>   Q  -1.3290  13.57$  16.93$  17.19$
|160>   Q  0.6645  16.59$  11.63$  11.47$
|161>   Q  0.6645  17.04$  12.69$  12.49$
|162>   Q  -1.3290  16.82$  12.39$  11.72$
|163>   Q  0.6645  13.03$  7.27$  3.68$
|164>   Q  0.6645  12.19$  5.98$  3.76$
|165>   Q  -1.3290  12.82$  6.5$  4$
|166>   Q  0.6645  15.14$  15.24$  9.86$
|167>   Q  0.6645  15.11$  16.32$  8.89$
|168>   Q  -1.3290  14.83$  15.62$  9.19$
|169>   Q  0.6645  16.86$  6.26$  13.9$
|170>   Q  0.6645  15.76$  6.41$  12.88$
|171>   Q  -1.3290  16.12$  6.1$  13.57$
|172>   Q  0.6645  8.55$  16.36$  18.08$
|173>   Q  0.6645  9.03$  17.55$  18.9$
|174>   Q  -1.3290  8.91$  16.74$  18.74$
|175>   Q  0.6645  7.12$  9.19$  16.87$
|176>   Q  0.6645  7.74$  9.71$  15.45$
|177>   Q  -1.3290  7.56$  9.16$  16.1$
|178>   Q  0.6645  18.74$  12.82$  3.1$
|179>   Q  0.6645  19.74$  13.69$  3.94$
|180>   Q  -1.3290  19.32$  13.46$  3.24$
|181>   Q  0.6645  9.46$  21.95$  10.82$
|182>   Q  0.6645  8.66$  20.83$  11.46$
|183>   Q  -1.3290  9.4$  21.21$  11.23$
|184>   Q  0.6645  14.97$  5.84$  3.68$
|185>   Q  0.6645  16.45$  5.81$  4.19$
|186>   Q  -1.3290  15.8$  6.09$  3.7$
|187>   Q  0.6645  14.47$  12.92$  3.77$
|188>   Q  0.6645  15.36$  14.03$  4.14$
|189>   Q  -1.3290  14.71$  13.51$  4.26$
|190>   Q  0.6645  21.88$  7.21$  12.39$
|191>   Q  0.6645  20.51$  7.79$  12.17$
|192>   Q  -1.3290  21.09$  7.26$  12.53$
|193>   Q  0.6645  18.21$  12.64$  9.81$
|194>   Q  0.6645  19.2$  11.86$  8.95$
|195>   Q  -1.3290  18.49$  12.26$  9.1$
|196>   Q  0.6645  3.94$  6.23$  5.49$
|197>   Q  0.6645  2.93$  5.11$  5.16$
|198>   Q  -1.3290  3.35$  5.63$  5.67$
|199>   Q  0.6645  12.57$  2.89$  9.65$
|200>   Q  0.6645  11.29$  3.81$  9.65$
|201>   Q  -1.3290  12.02$  3.47$  9.34$
|202>   Q  0.6645  10.54$  3.81$  17.47$
|203>   Q  0.6645  12$  3.6$  17.49$
|204>   Q  -1.3290  11.31$  3.94$  17.2$
|205>   Q  0.6645  2.64$  11.7$  6.26$
|206>   Q  0.6645  2.77$  10.36$  5.64$
|207>   Q  -1.3290  2.59$  10.87$  6.28$
|208>   Q  0.6645  7.73$  4.96$  15.77$
|209>   Q  0.6645  8.07$  3.62$  15.15$
|210>   Q  -1.3290  7.67$  4.12$  15.71$
|211>   Q  0.6645  14.37$  18.94$  15.13$
|212>   Q  0.6645  12.99$  18.42$  14.44$
|213>   Q  -1.3290  13.74$  18.36$  14.9$
|214>   Q  0.6645  2.33$  13.95$  6.75$
|215>   Q  0.6645  3.57$  13.99$  5.75$
|216>   Q  -1.3290  2.88$  13.63$  6.17$
|217>   Q  0.6645  8.86$  5.2$  19.25$
|218>   Q  0.6645  9.74$  5.56$  20.39$
|219>   Q  -1.3290  9.01$  5.54$  19.99$
|220>   Q  0.6645  1.6$  15.62$  8.47$
|221>   Q  0.6645  2.16$  14.36$  9.16$
|222>   Q  -1.3290  1.6$  14.79$  8.7$
|223>   Q  0.6645  10.57$  19.11$  6.2$
|224>   Q  0.6645  9.13$  19.69$  6.33$
|225>   Q  -1.3290  9.93$  19.59$  6.51$
|226>   Q  0.6645  17.31$  7.03$  2.76$
|227>   Q  0.6645  18.07$  8.22$  2.82$
|228>   Q  -1.3290  18.02$  7.41$  2.69$
|229>   Q  0.6645  11.06$  14.22$  18.49$
|230>   Q  0.6645  11.56$  13.93$  19.86$
|231>   Q  -1.3290  11.66$  14.19$  19.06$
|232>   Q  0.6645  12.57$  9.86$  16.8$
|233>   Q  0.6645  12.57$  9.41$  18.33$
|234>   Q  -1.3290  12.61$  9.3$  17.47$
|235>   Q  0.6645  5.11$  11.61$  6.43$
|236>   Q  0.6645  6.38$  12.26$  5.62$
|237>   Q  -1.3290  5.72$  12.19$  6.2$
|238>   Q  0.6645  8.43$  12.26$  4.67$
|239>   Q  0.6645  7.49$  12.9$  3.78$
|240>   Q  -1.3290  7.84$  12.8$  4.5$
|241>   Q  0.6645  19.79$  13.33$  14.03$
|242>   Q  0.6645  18.67$  14.31$  14.32$
|243>   Q  -1.3290  19.09$  13.75$  13.84$
|244>   Q  0.6645  13.68$  11.43$  1.71$
|245>   Q  0.6645  14.28$  12.83$  1.57$
|246>   Q  -1.3290  14.22$  12.05$  1.84$
|247>   Q  0.6645  9.98$  9.95$  0.81$
|248>   Q  0.6645  10.18$  8.41$  1.06$
|249>   Q  -1.3290  9.73$  9.16$  1.01$
|250>   Q  0.6645  3.3$  9.28$  17.44$
|251>   Q  0.6645  4.34$  9.26$  18.46$
|252>   Q  -1.3290  3.59$  9.14$  18.19$
|253>   Q  0.6645  21.03$  8.87$  8.3$
|254>   Q  0.6645  22.37$  8.03$  8.76$
|255>   Q  -1.3290  21.58$  8.19$  8.4$
|256>   Q  0.6645  20.73$  10.41$  14.55$
|257>   Q  0.6645  22.04$  9.74$  14.41$
|258>   Q  -1.3290  21.55$  10.39$  14.35$
|259>   Q  0.6645  7.45$  16.59$  8.53$
|260>   Q  0.6645  6.5$  17$  7.23$
|261>   Q  -1.3290  7.25$  16.93$  7.75$
|262>   Q  0.6645  10.91$  18.45$  10.19$
|263>   Q  0.6645  11.68$  17.17$  10.62$
|264>   Q  -1.3290  11.48$  18.03$  10.63$
|265>   Q  0.6645  16.41$  8.64$  19.9$
|266>   Q  0.6645  16.38$  7.06$  19.52$
|267>   Q  -1.3290  16.5$  7.91$  19.42$
|268>   Q  0.6645  1.9$  7.82$  11.5$
|269>   Q  0.6645  2.97$  7.4$  12.52$
|270>   Q  -1.3290  2.27$  7.79$  12.28$
|271>   Q  0.6645  15.63$  15.5$  6.85$
|272>   Q  0.6645  16.89$  16.05$  7.24$
|273>   Q  -1.3290  16.18$  16.07$  6.81$
|274>   Q  0.6645  -0.28$  16.64$  10.46$
|275>   Q  0.6645  0.96$  15.83$  10.43$
|276>   Q  -1.3290  0.36$  16.25$  10.82$
|277>   Q  0.6645  19.04$  10.19$  18.74$
|278>   Q  0.6645  18.38$  8.73$  18.65$
|279>   Q  -1.3290  18.8$  9.43$  18.35$
|280>   Q  0.6645  20.43$  14$  10.35$
|281>   Q  0.6645  21.44$  13.82$  9.2$
|282>   Q  -1.3290  20.99$  13.59$  9.9$
|283>   Q  0.6645  9.66$  4.29$  10.96$
|284>   Q  0.6645  9.23$  4.29$  9.53$
|285>   Q  -1.3290  9.59$  3.97$  10.22$
|286>   Q  0.6645  1.24$  11.36$  16.96$
|287>   Q  0.6645  1.99$  12.83$  16.69$
|288>   Q  -1.3290  1.9$  11.97$  16.88$
|289>   Q  0.6645  12.82$  15.48$  9.61$
|290>   Q  0.6645  11.66$  15.8$  8.83$
|291>   Q  -1.3290  12.05$  15.63$  9.53$
|292>   Q  0.6645  10.37$  2.91$  13.9$
|293>   Q  0.6645  10.78$  3.58$  15.24$
|294>   Q  -1.3290  10.24$  3.24$  14.66$
|295>   Q  0.6645  2.11$  4.74$  8.85$
|296>   Q  0.6645  2.82$  4.81$  7.41$
|297>   Q  -1.3290  2.75$  4.7$  8.28$
|298>   Q  0.6645  17.27$  19.99$  11.61$
|299>   Q  0.6645  16.69$  18.71$  12.25$
|300>   Q  -1.3290  16.92$  19.22$  11.62$
|301>   Q  0.6645  19.38$  15.96$  11.51$
|302>   Q  0.6645  18.67$  14.61$  11.83$
|303>   Q  -1.3290  18.99$  15.21$  11.31$
|304>   Q  0.6645  9.89$  3.65$  5.68$
|305>   Q  0.6645  10.22$  2.08$  6.05$
|306>   Q  -1.3290  10.03$  2.79$  5.56$
|307>   Q  0.6645  4.14$  8.09$  14.85$
|308>   Q  0.6645  2.6$  8.46$  14.92$
|309>   Q  -1.3290  3.44$  8.45$  15.17$
|310>   Q  0.6645  20.77$  5.55$  13.86$
|311>   Q  0.6645  20.35$  5.69$  15.23$
|312>   Q  -1.3290  20.85$  5.43$  14.65$
|313>   Q  0.6645  8.49$  5.76$  5.48$
|314>   Q  0.6645  9.92$  5.95$  5.97$
|315>   Q  -1.3290  9.17$  5.54$  5.91$
|316>   Q  0.6645  3.99$  10.53$  15.07$
|317>   Q  0.6645  3.32$  11.55$  16.04$
|318>   Q  -1.3290  3.96$  11.2$  15.59$
|319>   Q  0.6645  9.61$  1.89$  15.69$
|320>   Q  0.6645  9.28$  1.39$  17.2$
|321>   Q  -1.3290  9.25$  1.38$  16.31$
|322>   Q  0.6645  16.95$  16.39$  15.15$
|323>   Q  0.6645  17.36$  15.67$  16.45$
|324>   Q  -1.3290  17.41$  15.89$  15.65$
|325>   Q  0.6645  12.55$  7.39$  17.09$
|326>   Q  0.6645  11.96$  5.98$  16.92$
|327>   Q  -1.3290  12.55$  6.53$  17.11$
|328>   Q  0.6645  6.66$  16.76$  10.42$
|329>   Q  0.6645  7.95$  15.81$  10.55$
|330>   Q  -1.3290  7.13$  16.05$  10.31$
|331>   Q  0.6645  17.69$  10.98$  2.45$
|332>   Q  0.6645  16.37$  11.7$  1.82$
|333>   Q  -1.3290  17.22$  11.56$  1.98$
|334>   Q  0.6645  3.25$  3.9$  10.73$
|335>   Q  0.6645  4.56$  3.94$  11.6$
|336>   Q  -1.3290  3.75$  3.68$  11.37$
|337>   Q  0.6645  2.25$  8.92$  9.6$
|338>   Q  0.6645  2.92$  7.57$  9.35$
|339>   Q  -1.3290  2.31$  8.06$  9.61$
|340>   Q  0.6645  16.74$  12.27$  20.72$
|341>   Q  0.6645  16.63$  13.76$  20.75$
|342>   Q  -1.3290  16.41$  12.99$  20.5$
|343>   Q  0.6645  15.14$  4.14$  7.33$
|344>   Q  0.6645  16.1$  2.91$  6.83$
|345>   Q  -1.3290  15.79$  3.56$  7.36$
|346>   Q  0.6645  8.26$  8.88$  2.61$
|347>   Q  0.6645  7.26$  7.79$  2.94$
|348>   Q  -1.3290  7.79$  8.43$  3.11$
|349>   Q  0.6645  20.83$  10.64$  9.42$
|350>   Q  0.6645  20.54$  10.94$  7.93$
|351>   Q  -1.3290  20.43$  10.54$  8.68$
|352>   Q  0.6645  5.77$  3.25$  7.64$
|353>   Q  0.6645  4.57$  3.75$  8.56$
|354>   Q  -1.3290  5.4$  3.46$  8.38$
|355>   Q  0.6645  8.64$  2.59$  18.58$
|356>   Q  0.6645  8.49$  3.46$  17.32$
|357>   Q  -1.3290  8.76$  3.29$  18.12$
|358>   Q  0.6645  15.11$  5.05$  15.05$
|359>   Q  0.6645  13.95$  5.41$  15.99$
|360>   Q  -1.3290  14.51$  4.9$  15.62$
|361>   Q  0.6645  9.32$  16.73$  12.16$
|362>   Q  0.6645  8.33$  17.68$  11.59$
|363>   Q  -1.3290  8.82$  17.4$  12.18$
|364>   Q  0.6645  15.97$  9.82$  15.61$
|365>   Q  0.6645  17.38$  10.35$  15.12$
|366>   Q  -1.3290  16.51$  10.29$  15.13$
|367>   Q  0.6645  7.15$  3.81$  6.34$
|368>   Q  0.6645  7.77$  2.44$  6.28$
|369>   Q  -1.3290  7.14$  2.99$  6.24$
|370>   Q  0.6645  3.02$  12.5$  18.47$
|371>   Q  0.6645  2.42$  13.17$  19.53$
|372>   Q  -1.3290  3.09$  12.95$  19.15$
|373>   Q  0.6645  2.66$  10.53$  8.42$
|374>   Q  0.6645  2.37$  11.56$  9.52$
|375>   Q  -1.3290  2.35$  10.8$  9.15$
|376>   Q  0.6645  15.84$  17.92$  6.03$
|377>   Q  0.6645  16.43$  19.31$  5.72$
|378>   Q  -1.3290  15.95$  18.65$  5.57$
|379>   Q  0.6645  7.2$  12.26$  18.68$
|380>   Q  0.6645  6.14$  12.54$  17.51$
|381>   Q  -1.3290  6.63$  12.07$  18.05$
|382>   Q  0.6645  5.12$  15.65$  5.91$
|383>   Q  0.6645  5.8$  14.37$  5.31$
|384>   Q  -1.3290  5.25$  15.04$  5.32$
|385>   Q  0.6645  17.11$  4.05$  13.63$
|386>   Q  0.6645  18.39$  3.1$  13.36$
|387>   Q  -1.3290  17.69$  3.41$  13.76$
|388>   Q  0.6645  12.4$  18.83$  6.47$
|389>   Q  0.6645  12.7$  18.26$  5.06$
|390>   Q  -1.3290  12.23$  18.37$  5.76$
|391>   Q  0.6645  16.75$  9.71$  4.13$
|392>   Q  0.6645  18.2$  10.2$  4.42$
|393>   Q  -1.3290  17.56$  9.88$  3.95$
|394>   Q  0.6645  17.42$  4.79$  6.35$
|395>   Q  0.6645  18.36$  4.79$  5.09$
|396>   Q  -1.3290  17.74$  5.06$  5.61$
|397>   Q  0.6645  13.88$  0.2$  12.82$
|398>   Q  0.6645  14$  1.32$  13.92$
|399>   Q  -1.3290  13.78$  0.97$  13.13$
|400>   Q  0.6645  6.68$  5.7$  4.23$
|401>   Q  0.6645  6.06$  7$  4.91$
|402>   Q  -1.3290  6.57$  6.32$  4.85$
|403>   Q  0.6645  15.4$  12.18$  15.37$
|404>   Q  0.6645  14.76$  12.88$  16.58$
|405>   Q  -1.3290  14.88$  12.69$  15.78$
|406>   Q  0.6645  15.15$  12.86$  18.88$
|407>   Q  0.6645  13.7$  13.35$  18.59$
|408>   Q  -1.3290  14.42$  12.89$  18.47$
|409>   Q  0.6645  11.4$  11.39$  0.87$
|410>   Q  0.6645  11.14$  11.17$  2.31$
|411>   Q  -1.3290  11.52$  11.05$  1.59$
|412>   Q  0.6645  20.74$  9.7$  3.7$
|413>   Q  0.6645  19.94$  9.16$  4.89$
|414>   Q  -1.3290  20.36$  9.73$  4.45$
|415>   Q  0.6645  5.07$  13.65$  19.26$
|416>   Q  0.6645  6.55$  14.13$  19.22$
|417>   Q  -1.3290  5.71$  14.23$  19.22$
|418>   Q  0.6645  4.61$  16.82$  8.09$
|419>   Q  0.6645  4.21$  17.59$  6.84$
|420>   Q  -1.3290  4.61$  16.98$  7.27$
|421>   Q  0.6645  13.17$  19.93$  12.24$
|422>   Q  0.6645  14.37$  20.2$  11.24$
|423>   Q  -1.3290  13.95$  20.24$  11.95$
|424>   Q  0.6645  8.89$  18.85$  15.21$
|425>   Q  0.6645  8.96$  17.88$  14.04$
|426>   Q  -1.3290  8.99$  18.1$  14.86$
|427>   Q  0.6645  14.44$  8.52$  16.91$
|428>   Q  0.6645  15.8$  8.52$  17.77$
|429>   Q  -1.3290  15.28$  8.57$  17.07$
|430>   Q  0.6645  11.03$  19.51$  13.52$
|431>   Q  0.6645  11.67$  18.7$  12.46$
|432>   Q  -1.3290  11.64$  19.09$  13.2$
|433>   Q  0.6645  9.29$  2.18$  9.75$
|434>   Q  0.6645  9.75$  1.01$  8.89$
|435>   Q  -1.3290  9.27$  1.37$  9.46$
|436>   Q  0.6645  8.3$  15.78$  6.71$
|437>   Q  0.6645  8.46$  14.54$  5.89$
|438>   Q  -1.3290  8.69$  15.06$  6.48$
|439>   Q  0.6645  3.64$  14.82$  17.38$
|440>   Q  0.6645  3.04$  15.43$  16.13$
|441>   Q  -1.3290  3.13$  14.82$  16.73$
|442>   Q  0.6645  10.78$  13.06$  21.65$
|443>   Q  0.6645  12.4$  13.03$  21.42$
|444>   Q  -1.3290  11.56$  12.76$  21.36$
|445>   Q  0.6645  13.17$  8.48$  22.29$
|446>   Q  0.6645  12.94$  9.29$  20.9$
|447>   Q  -1.3290  12.81$  8.72$  21.54$
|448>   Q  0.6645  14.16$  0.78$  7.43$
|449>   Q  0.6645  13.54$  1.55$  6.08$
|450>   Q  -1.3290  13.72$  0.91$  6.65$
|451>   Q  0.6645  7.94$  7.2$  20.44$
|452>   Q  0.6645  8.06$  8.4$  21.46$
|453>   Q  -1.3290  7.76$  7.97$  20.78$
|454>   Q  0.6645  7.01$  5.42$  10.13$
|455>   Q  0.6645  6.69$  5.75$  11.49$
|456>   Q  -1.3290  6.72$  5.94$  10.7$
|457>   Q  0.6645  12.88$  19.27$  9$
|458>   Q  0.6645  13.17$  20.62$  8.4$
|459>   Q  -1.3290  13.04$  19.79$  8.38$
|460>   Q  0.6645  11.91$  3.29$  5.31$
|461>   Q  0.6645  13.14$  4.04$  5.79$
|462>   Q  -1.3290  12.73$  3.48$  5.37$
|463>   Q  0.6645  14.61$  13.63$  6.34$
|464>   Q  0.6645  14.13$  14.29$  7.72$
|465>   Q  -1.3290  14.34$  13.65$  7.16$
|466>   Q  0.6645  14.56$  17.63$  3.44$
|467>   Q  0.6645  13.34$  16.82$  3.66$
|468>   Q  -1.3290  13.77$  17.52$  3.56$
|469>   Q  0.6645  3.26$  4.12$  13.28$
|470>   Q  0.6645  2.48$  4.5$  14.58$
|471>   Q  -1.3290  3.13$  4.53$  14.02$
|472>   Q  0.6645  20.51$  6.53$  7.99$
|473>   Q  0.6645  19.92$  5.75$  6.8$
|474>   Q  -1.3290  20.03$  5.92$  7.61$
|475>   Q  0.6645  11.6$  16.74$  6.7$
|476>   Q  0.6645  10.51$  15.5$  6.91$
|477>   Q  -1.3290  11.31$  15.9$  6.84$
|478>   Q  0.6645  13.49$  11.22$  19.44$
|479>   Q  0.6645  12.21$  11.22$  20.14$
|480>   Q  -1.3290  12.8$  10.85$  19.77$
|481>   Q  0.6645  4.83$  8.81$  5.91$
|482>   Q  0.6645  3.85$  8.55$  4.7$
|483>   Q  -1.3290  4.49$  8.39$  5.25$
|484>   Q  0.6645  6.05$  15.12$  11.64$
|485>   Q  0.6645  6.22$  14.76$  13.22$
|486>   Q  -1.3290  5.84$  15.03$  12.5$
|487>   Q  0.6645  8.1$  11.62$  16.84$
|488>   Q  0.6645  9.45$  10.89$  16.79$
|489>   Q  -1.3290  8.92$  11.54$  16.68$
|490>   Q  0.6645  14.9$  20.29$  13.73$
|491>   Q  0.6645  16.04$  20.96$  14.51$
|492>   Q  -1.3290  15.3$  20.56$  14.44$
|493>   Q  0.6645  17.43$  7.87$  15.65$
|494>   Q  0.6645  18.32$  6.58$  15.92$
|495>   Q  -1.3290  17.88$  7.16$  15.42$
|496>   Q  0.6645  2.26$  16.38$  14.42$
|497>   Q  0.6645  2.87$  17.58$  15.23$
|498>   Q  -1.3290  2.8$  16.77$  14.92$
|499>   Q  0.6645  5.91$  9.49$  3.28$
|500>   Q  0.6645  5.47$  9.03$  1.79$
|501>   Q  -1.3290  5.45$  9.48$  2.55$
|502>   Q  0.6645  4.24$  6.37$  8.4$
|503>   Q  0.6645  5.39$  6.86$  9.25$
|504>   Q  -1.3290  4.75$  6.96$  8.73$
|505>   Q  0.6645  4.18$  18.12$  9.91$
|506>   Q  0.6645  4.15$  16.69$  10.67$
|507>   Q  -1.3290  4.15$  17.24$  10.01$
|508>   Q  0.6645  6.03$  15.03$  16.2$
|509>   Q  0.6645  4.91$  13.95$  15.94$
|510>   Q  -1.3290  5.68$  14.25$  16.02$
|511>   Q  0.6645  16$  16.52$  12.61$
|512>   Q  0.6645  15.09$  17.11$  13.76$
|513>   Q  -1.3290  15.82$  16.96$  13.33$
|514>   Q  0.6645  12.01$  15.16$  5.2$
|515>   Q  0.6645  13.23$  14.51$  4.53$
|516>   Q  -1.3290  12.51$  14.98$  4.54$
|517>   Q  0.6645  0.3$  7.88$  15.83$
|518>   Q  0.6645  0.26$  7.27$  14.67$
|519>   Q  -1.3290  0.57$  7.83$  15.12$
|520>   Q  0.6645  8.31$  13.27$  20.53$
|521>   Q  0.6645  8.76$  13.69$  19.05$
|522>   Q  -1.3290  8.3$  13.28$  19.68$
|523>   Q  0.6645  12.42$  9.37$  2.16$
|524>   Q  0.6645  13.58$  9.46$  3.12$
|525>   Q  -1.3290  13.02$  9.04$  2.66$
|526>   Q  0.6645  15.04$  2.5$  10.6$
|527>   Q  0.6645  13.86$  1.78$  11.51$
|528>   Q  -1.3290  14.22$  2.27$  10.87$
|529>   Q  0.6645  20.46$  14.46$  5.77$
|530>   Q  0.6645  19.23$  14.86$  6.58$
|531>   Q  -1.3290  19.65$  14.72$  5.88$
|532>   Q  0.6645  8.6$  6.62$  14$
|533>   Q  0.6645  7.95$  7.55$  14.96$
|534>   Q  -1.3290  8.01$  6.83$  14.51$
|535>   Q  0.6645  21.21$  11.9$  10.93$
|536>   Q  0.6645  21.3$  10.87$  12.15$
|537>   Q  -1.3290  21.08$  11.15$  11.37$
|538>   Q  0.6645  11.14$  14.83$  3.18$
|539>   Q  0.6645  10.29$  15.64$  2.17$
|540>   Q  -1.3290  10.62$  14.94$  2.52$
|541>   Q  0.6645  16.37$  18.57$  9.85$
|542>   Q  0.6645  15.5$  19.21$  8.88$
|543>   Q  -1.3290  16.01$  18.65$  9.11$
|544>   Q  0.6645  17.14$  15.54$  4.94$
|545>   Q  0.6645  17.86$  14.76$  3.82$
|546>   Q  -1.3290  17.23$  15.19$  4.16$
|547>   Q  0.6645  6.63$  20.24$  7.77$
|548>   Q  0.6645  7.28$  18.9$  7.54$
|549>   Q  -1.3290  6.97$  19.63$  7.29$
|550>   Q  0.6645  9.86$  10.44$  4.85$
|551>   Q  0.6645  10.87$  11.56$  5.09$
|552>   Q  -1.3290  10.22$  11.18$  4.71$
|553>   Q  0.6645  4.78$  6.03$  18.18$
|554>   Q  0.6645  5.44$  7.06$  19$
|555>   Q  -1.3290  5.3$  6.29$  18.76$
|556>   Q  0.6645  19.01$  8.81$  15.2$
|557>   Q  0.6645  19.02$  9.65$  16.46$
|558>   Q  -1.3290  19.07$  9.52$  15.62$
|559>   Q  0.6645  15.32$  1.38$  16.18$
|560>   Q  0.6645  14.89$  2.82$  15.84$
|561>   Q  -1.3290  14.98$  1.99$  15.71$
|562>   Q  0.6645  22.5$  10.87$  6.59$
|563>   Q  0.6645  21.01$  10.67$  5.86$
|564>   Q  -1.3290  21.62$  11.01$  6.43$
|565>   Q  0.6645  6.03$  3.18$  12.94$
|566>   Q  0.6645  6.38$  4.43$  13.74$
|567>   Q  -1.3290  6.28$  3.96$  13.07$
|568>   Q  0.6645  15.49$  16.05$  19.67$
|569>   Q  0.6645  14$  15.61$  19.27$
|570>   Q  -1.3290  14.64$  15.96$  19.74$
|571>   Q  0.6645  10.82$  1.89$  11.46$
|572>   Q  0.6645  11.63$  1.37$  12.72$
|573>   Q  -1.3290  11.15$  1.89$  12.24$
|574>   Q  0.6645  11.76$  6.12$  7$
|575>   Q  0.6645  12.03$  6.8$  5.79$
|576>   Q  -1.3290  11.53$  6.63$  6.39$
|577>   Q  0.6645  19.66$  9.8$  11.3$
|578>   Q  0.6645  18.93$  8.6$  10.72$
|579>   Q  -1.3290  19.23$  9.07$  11.37$
|580>   Q  0.6645  3.3$  12.12$  12.93$
|581>   Q  0.6645  4.2$  13.39$  12.82$
|582>   Q  -1.3290  3.5$  12.9$  12.67$
|583>   Q  0.6645  16.04$  14.14$  11.45$
|584>   Q  0.6645  14.97$  14.88$  12.33$
|585>   Q  -1.3290  15.63$  14.81$  11.77$
|586>   Q  0.6645  9.39$  13.61$  16.83$
|587>   Q  0.6645  9.9$  15.06$  16.64$
|588>   Q  -1.3290  9.69$  14.37$  17.08$
|589>   Q  0.6645  18.76$  18.42$  11.59$
|590>   Q  0.6645  20.06$  18.5$  12.4$
|591>   Q  -1.3290  19.55$  18.21$  11.82$
|592>   Q  0.6645  6.74$  19.49$  10.3$
|593>   Q  0.6645  6.54$  19.35$  11.91$
|594>   Q  -1.3290  6.66$  19.08$  11.06$
|595>   Q  0.6645  12.2$  4$  2.78$
|596>   Q  0.6645  10.76$  3.81$  2.36$
|597>   Q  -1.3290  11.49$  4.2$  2.42$
|598>   Q  0.6645  18.61$  8.18$  7.05$
|599>   Q  0.6645  18.3$  7.5$  5.82$
|600>   Q  -1.3290  18.61$  8.09$  6.25$
|601>   Q  0.6645  13.18$  6.93$  20.3$
|602>   Q  0.6645  13.23$  6.34$  18.75$
|603>   Q  -1.3290  13.32$  6.34$  19.64$
|604>   Q  0.6645  4.24$  5.24$  15.97$
|605>   Q  0.6645  3.4$  6.67$  16.03$
|606>   Q  -1.3290  3.86$  5.97$  16.32$
|607>   Q  0.6645  12.78$  14.37$  13.44$
|608>   Q  0.6645  13.94$  14.02$  14.45$
|609>   Q  -1.3290  13.58$  14.36$  13.75$
|610>   Q  0.6645  4.43$  17.39$  14.38$
|611>   Q  0.6645  5.29$  16.82$  13.25$
|612>   Q  -1.3290  5.03$  17.41$  13.77$
|613>   Q  0.6645  8.71$  8.64$  4.85$
|614>   Q  0.6645  9.79$  8.35$  5.99$
|615>   Q  -1.3290  9.14$  8.78$  5.6$
|616>   Q  0.6645  4.14$  18.93$  12.39$
|617>   Q  0.6645  4.29$  20.06$  11.42$
|618>   Q  -1.3290  3.88$  19.57$  11.94$
|619>   Q  0.6645  8.19$  6.57$  8.98$
|620>   Q  0.6645  8.32$  5.56$  7.71$
|621>   Q  -1.3290  8.39$  5.82$  8.53$
|622>   Q  0.6645  12.06$  18$  20.06$
|623>   Q  0.6645  11.26$  16.91$  19.3$
|624>   Q  -1.3290  11.85$  17.49$  19.4$
|625>   Q  0.6645  6.11$  13.11$  2.14$
|626>   Q  0.6645  6.08$  11.5$  1.89$
|627>   Q  -1.3290  6.45$  12.3$  1.98$
|628>   Q  0.6645  0.43$  13.46$  14.67$
|629>   Q  0.6645  0.04$  12.04$  15.08$
|630>   Q  -1.3290  0.08$  12.9$  15.17$
|631> *
|632> 
|633>                          ****END OF INPUT****
================================================================================

                     *******************************
                     * Energy+Gradient Calculation *
                     *******************************

---------------------------------
CARTESIAN COORDINATES (ANGSTROEM)
---------------------------------
  C     12.920000   10.380000   10.730000
  H     13.710000    9.770000   10.990000
  H     13.290000   11.390000   10.520000
  C     12.000000   10.460000   11.990000
  H     11.550000    9.430000   12.100000
  H     12.640000   10.620000   12.850000
  C     10.890000   11.490000   11.970000
  H     11.210000   12.450000   11.590000
  H     10.520000   11.660000   12.960000
  C      9.750000   11.060000   11.040000
  H      9.280000   10.080000   11.360000
  H     10.130000   11.060000   10.020000
  O      8.650000   12.040000   11.160000
  H      8.170000   12.030000   12.050000
  O     12.320000    9.850000    9.630000
  H     12.930000    9.980000    8.920000
  O      6.720000    8.840000   12.020000
  H      6.200000    9.570000   11.500000
  H      6.050000    8.300000   12.510000
  O     13.850000    9.740000    7.110000
  H     14.750000   10.130000    7.320000
  H     13.330000   10.500000    6.890000
  O     12.730000    6.610000   11.900000
  H     12.600000    5.750000   12.340000
  H     12.080000    6.740000   11.180000
  O      5.600000   10.930000   10.350000
  H      5.070000   10.590000    9.610000
  H      6.230000   11.570000    9.950000
  O     14.790000    7.650000    8.350000
  H     14.760000    7.810000    9.300000
  H     14.260000    8.230000    7.770000
  O     12.640000    4.250000   13.440000
  H     13.330000    4.290000   14.120000
  H     12.670000    3.390000   12.990000
  O     15.180000    8.970000    4.520000
  H     15.210000    8.000000    4.350000
  H     14.660000    9.180000    5.340000
  O     10.050000    5.860000   13.280000
  H     10.700000    6.450000   12.880000
  H     10.430000    5.010000   13.550000
  O      6.950000   11.160000   13.970000
  H      6.730000   10.430000   13.460000
  H      6.080000   11.250000   14.390000
  O      7.730000   10.220000    8.030000
  H      8.090000    9.800000    7.210000
  H      8.300000   11.000000    8.020000
  O      9.170000   12.610000    7.900000
  H      8.960000   13.510000    7.550000
  H      9.110000   12.690000    8.810000
  O      8.440000    8.250000    9.730000
  H      8.020000    8.140000   10.540000
  H      8.210000    9.110000    9.320000
  O      5.000000    9.710000    7.650000
  H      5.910000   10.140000    7.860000
  H      4.960000    8.820000    7.990000
  O     10.750000   14.060000   14.190000
  H     11.080000   14.630000   14.890000
  H      9.800000   13.940000   14.450000
  O      3.880000   10.450000   12.740000
  H      3.350000    9.700000   12.610000
  H      4.230000   10.740000   11.850000
  O     12.420000   11.040000   15.550000
  H     13.200000   11.590000   15.620000
  H     11.670000   11.670000   15.330000
  O      6.190000   13.180000    8.670000
  H      6.100000   12.970000    7.730000
  H      6.610000   14.040000    8.910000
  O     16.340000    9.820000   12.120000
  H     17.260000    9.550000   12.020000
  H     16.170000   10.210000   12.940000
  O      3.420000   13.110000    9.810000
  H      3.350000   13.190000   10.800000
  H      4.330000   13.070000    9.600000
  O     17.740000    8.030000    8.950000
  H     16.950000    8.440000    8.660000
  H     17.680000    7.060000    8.890000
  O      5.100000    6.930000   13.610000
  H      4.510000    6.100000   13.740000
  H      5.900000    6.730000   14.080000
  O     13.850000    5.140000    7.460000
  H     14.050000    6.040000    7.710000
  H     13.280000    4.700000    8.180000
  O      8.050000   13.830000   14.370000
  H      7.350000   14.170000   14.940000
  H      7.700000   12.970000   14.250000
  O     11.950000   12.020000    6.460000
  H     11.320000   12.160000    7.220000
  H     12.700000   12.660000    6.670000
  O     16.850000    5.470000    9.570000
  H     16.300000    5.190000    8.800000
  H     16.200000    5.990000   10.180000
  O     16.540000   10.390000    7.300000
  H     17.220000    9.780000    6.930000
  H     17.050000   10.980000    7.850000
  O     11.040000    7.270000    9.960000
  H     11.560000    8.100000    9.800000
  H     10.080000    7.540000    9.810000
  O      9.500000   15.020000   11.260000
  H      9.510000   14.140000   11.660000
  H     10.380000   15.170000   10.840000
  O     15.240000    7.480000   11.310000
  H     15.600000    8.320000   11.740000
  H     14.300000    7.260000   11.530000
  Q      9.550000   19.570000    8.380000
  Q      9.430000   20.100000    9.870000
  Q      9.330000   19.540000    9.230000
  Q      7.770000   17.140000   15.900000
  Q      6.990000   17.530000   17.190000
  Q      7.250000   16.980000   16.560000
  Q      6.000000   19.020000   14.550000
  Q      5.500000   20.480000   14.940000
  Q      6.070000   19.830000   14.870000
  Q     18.200000   14.100000    8.220000
  Q     18.650000   15.320000    9.040000
  Q     18.360000   14.950000    8.380000
  Q     16.520000    2.530000    9.130000
  Q     17.180000    3.700000    9.940000
  Q     16.890000    2.870000    9.820000
  Q      6.400000   10.050000   18.530000
  Q      6.900000    8.830000   19.150000
  Q      6.410000    9.240000   18.630000
  Q     19.720000    3.200000    9.410000
  Q     19.920000    4.670000    9.580000
  Q     20.020000    3.870000    9.800000
  Q     11.990000   16.390000   15.990000
  Q     10.710000   17.040000   15.270000
  Q     11.250000   16.440000   15.560000
  Q      2.110000   14.240000   13.110000
  Q      0.810000   15.100000   12.900000
  Q      1.430000   14.730000   13.360000
  Q     13.730000   17.250000   16.410000
  Q     12.980000   17.160000   17.800000
  Q     13.570000   16.930000   17.190000
  Q     16.590000   11.630000   11.470000
  Q     17.040000   12.690000   12.490000
  Q     16.820000   12.390000   11.720000
  Q     13.030000    7.270000    3.680000
  Q     12.190000    5.980000    3.760000
  Q     12.820000    6.500000    4.000000
  Q     15.140000   15.240000    9.860000
  Q     15.110000   16.320000    8.890000
  Q     14.830000   15.620000    9.190000
  Q     16.860000    6.260000   13.900000
  Q     15.760000    6.410000   12.880000
  Q     16.120000    6.100000   13.570000
  Q      8.550000   16.360000   18.080000
  Q      9.030000   17.550000   18.900000
  Q      8.910000   16.740000   18.740000
  Q      7.120000    9.190000   16.870000
  Q      7.740000    9.710000   15.450000
  Q      7.560000    9.160000   16.100000
  Q     18.740000   12.820000    3.100000
  Q     19.740000   13.690000    3.940000
  Q     19.320000   13.460000    3.240000
  Q      9.460000   21.950000   10.820000
  Q      8.660000   20.830000   11.460000
  Q      9.400000   21.210000   11.230000
  Q     14.970000    5.840000    3.680000
  Q     16.450000    5.810000    4.190000
  Q     15.800000    6.090000    3.700000
  Q     14.470000   12.920000    3.770000
  Q     15.360000   14.030000    4.140000
  Q     14.710000   13.510000    4.260000
  Q     21.880000    7.210000   12.390000
  Q     20.510000    7.790000   12.170000
  Q     21.090000    7.260000   12.530000
  Q     18.210000   12.640000    9.810000
  Q     19.200000   11.860000    8.950000
  Q     18.490000   12.260000    9.100000
  Q      3.940000    6.230000    5.490000
  Q      2.930000    5.110000    5.160000
  Q      3.350000    5.630000    5.670000
  Q     12.570000    2.890000    9.650000
  Q     11.290000    3.810000    9.650000
  Q     12.020000    3.470000    9.340000
  Q     10.540000    3.810000   17.470000
  Q     12.000000    3.600000   17.490000
  Q     11.310000    3.940000   17.200000
  Q      2.640000   11.700000    6.260000
  Q      2.770000   10.360000    5.640000
  Q      2.590000   10.870000    6.280000
  Q      7.730000    4.960000   15.770000
  Q      8.070000    3.620000   15.150000
  Q      7.670000    4.120000   15.710000
  Q     14.370000   18.940000   15.130000
  Q     12.990000   18.420000   14.440000
  Q     13.740000   18.360000   14.900000
  Q      2.330000   13.950000    6.750000
  Q      3.570000   13.990000    5.750000
  Q      2.880000   13.630000    6.170000
  Q      8.860000    5.200000   19.250000
  Q      9.740000    5.560000   20.390000
  Q      9.010000    5.540000   19.990000
  Q      1.600000   15.620000    8.470000
  Q      2.160000   14.360000    9.160000
  Q      1.600000   14.790000    8.700000
  Q     10.570000   19.110000    6.200000
  Q      9.130000   19.690000    6.330000
  Q      9.930000   19.590000    6.510000
  Q     17.310000    7.030000    2.760000
  Q     18.070000    8.220000    2.820000
  Q     18.020000    7.410000    2.690000
  Q     11.060000   14.220000   18.490000
  Q     11.560000   13.930000   19.860000
  Q     11.660000   14.190000   19.060000
  Q     12.570000    9.860000   16.800000
  Q     12.570000    9.410000   18.330000
  Q     12.610000    9.300000   17.470000
  Q      5.110000   11.610000    6.430000
  Q      6.380000   12.260000    5.620000
  Q      5.720000   12.190000    6.200000
  Q      8.430000   12.260000    4.670000
  Q      7.490000   12.900000    3.780000
  Q      7.840000   12.800000    4.500000
  Q     19.790000   13.330000   14.030000
  Q     18.670000   14.310000   14.320000
  Q     19.090000   13.750000   13.840000
  Q     13.680000   11.430000    1.710000
  Q     14.280000   12.830000    1.570000
  Q     14.220000   12.050000    1.840000
  Q      9.980000    9.950000    0.810000
  Q     10.180000    8.410000    1.060000
  Q      9.730000    9.160000    1.010000
  Q      3.300000    9.280000   17.440000
  Q      4.340000    9.260000   18.460000
  Q      3.590000    9.140000   18.190000
  Q     21.030000    8.870000    8.300000
  Q     22.370000    8.030000    8.760000
  Q     21.580000    8.190000    8.400000
  Q     20.730000   10.410000   14.550000
  Q     22.040000    9.740000   14.410000
  Q     21.550000   10.390000   14.350000
  Q      7.450000   16.590000    8.530000
  Q      6.500000   17.000000    7.230000
  Q      7.250000   16.930000    7.750000
  Q     10.910000   18.450000   10.190000
  Q     11.680000   17.170000   10.620000
  Q     11.480000   18.030000   10.630000
  Q     16.410000    8.640000   19.900000
  Q     16.380000    7.060000   19.520000
  Q     16.500000    7.910000   19.420000
  Q      1.900000    7.820000   11.500000
  Q      2.970000    7.400000   12.520000
  Q      2.270000    7.790000   12.280000
  Q     15.630000   15.500000    6.850000
  Q     16.890000   16.050000    7.240000
  Q     16.180000   16.070000    6.810000
  Q     -0.280000   16.640000   10.460000
  Q      0.960000   15.830000   10.430000
  Q      0.360000   16.250000   10.820000
  Q     19.040000   10.190000   18.740000
  Q     18.380000    8.730000   18.650000
  Q     18.800000    9.430000   18.350000
  Q     20.430000   14.000000   10.350000
  Q     21.440000   13.820000    9.200000
  Q     20.990000   13.590000    9.900000
  Q      9.660000    4.290000   10.960000
  Q      9.230000    4.290000    9.530000
  Q      9.590000    3.970000   10.220000
  Q      1.240000   11.360000   16.960000
  Q      1.990000   12.830000   16.690000
  Q      1.900000   11.970000   16.880000
  Q     12.820000   15.480000    9.610000
  Q     11.660000   15.800000    8.830000
  Q     12.050000   15.630000    9.530000
  Q     10.370000    2.910000   13.900000
  Q     10.780000    3.580000   15.240000
  Q     10.240000    3.240000   14.660000
  Q      2.110000    4.740000    8.850000
  Q      2.820000    4.810000    7.410000
  Q      2.750000    4.700000    8.280000
  Q     17.270000   19.990000   11.610000
  Q     16.690000   18.710000   12.250000
  Q     16.920000   19.220000   11.620000
  Q     19.380000   15.960000   11.510000
  Q     18.670000   14.610000   11.830000
  Q     18.990000   15.210000   11.310000
  Q      9.890000    3.650000    5.680000
  Q     10.220000    2.080000    6.050000
  Q     10.030000    2.790000    5.560000
  Q      4.140000    8.090000   14.850000
  Q      2.600000    8.460000   14.920000
  Q      3.440000    8.450000   15.170000
  Q     20.770000    5.550000   13.860000
  Q     20.350000    5.690000   15.230000
  Q     20.850000    5.430000   14.650000
  Q      8.490000    5.760000    5.480000
  Q      9.920000    5.950000    5.970000
  Q      9.170000    5.540000    5.910000
  Q      3.990000   10.530000   15.070000
  Q      3.320000   11.550000   16.040000
  Q      3.960000   11.200000   15.590000
  Q      9.610000    1.890000   15.690000
  Q      9.280000    1.390000   17.200000
  Q      9.250000    1.380000   16.310000
  Q     16.950000   16.390000   15.150000
  Q     17.360000   15.670000   16.450000
  Q     17.410000   15.890000   15.650000
  Q     12.550000    7.390000   17.090000
  Q     11.960000    5.980000   16.920000
  Q     12.550000    6.530000   17.110000
  Q      6.660000   16.760000   10.420000
  Q      7.950000   15.810000   10.550000
  Q      7.130000   16.050000   10.310000
  Q     17.690000   10.980000    2.450000
  Q     16.370000   11.700000    1.820000
  Q     17.220000   11.560000    1.980000
  Q      3.250000    3.900000   10.730000
  Q      4.560000    3.940000   11.600000
  Q      3.750000    3.680000   11.370000
  Q      2.250000    8.920000    9.600000
  Q      2.920000    7.570000    9.350000
  Q      2.310000    8.060000    9.610000
  Q     16.740000   12.270000   20.720000
  Q     16.630000   13.760000   20.750000
  Q     16.410000   12.990000   20.500000
  Q     15.140000    4.140000    7.330000
  Q     16.100000    2.910000    6.830000
  Q     15.790000    3.560000    7.360000
  Q      8.260000    8.880000    2.610000
  Q      7.260000    7.790000    2.940000
  Q      7.790000    8.430000    3.110000
  Q     20.830000   10.640000    9.420000
  Q     20.540000   10.940000    7.930000
  Q     20.430000   10.540000    8.680000
  Q      5.770000    3.250000    7.640000
  Q      4.570000    3.750000    8.560000
  Q      5.400000    3.460000    8.380000
  Q      8.640000    2.590000   18.580000
  Q      8.490000    3.460000   17.320000
  Q      8.760000    3.290000   18.120000
  Q     15.110000    5.050000   15.050000
  Q     13.950000    5.410000   15.990000
  Q     14.510000    4.900000   15.620000
  Q      9.320000   16.730000   12.160000
  Q      8.330000   17.680000   11.590000
  Q      8.820000   17.400000   12.180000
  Q     15.970000    9.820000   15.610000
  Q     17.380000   10.350000   15.120000
  Q     16.510000   10.290000   15.130000
  Q      7.150000    3.810000    6.340000
  Q      7.770000    2.440000    6.280000
  Q      7.140000    2.990000    6.240000
  Q      3.020000   12.500000   18.470000
  Q      2.420000   13.170000   19.530000
  Q      3.090000   12.950000   19.150000
  Q      2.660000   10.530000    8.420000
  Q      2.370000   11.560000    9.520000
  Q      2.350000   10.800000    9.150000
  Q     15.840000   17.920000    6.030000
  Q     16.430000   19.310000    5.720000
  Q     15.950000   18.650000    5.570000
  Q      7.200000   12.260000   18.680000
  Q      6.140000   12.540000   17.510000
  Q      6.630000   12.070000   18.050000
  Q      5.120000   15.650000    5.910000
  Q      5.800000   14.370000    5.310000
  Q      5.250000   15.040000    5.320000
  Q     17.110000    4.050000   13.630000
  Q     18.390000    3.100000   13.360000
  Q     17.690000    3.410000   13.760000
  Q     12.400000   18.830000    6.470000
  Q     12.700000   18.260000    5.060000
  Q     12.230000   18.370000    5.760000
  Q     16.750000    9.710000    4.130000
  Q     18.200000   10.200000    4.420000
  Q     17.560000    9.880000    3.950000
  Q     17.420000    4.790000    6.350000
  Q     18.360000    4.790000    5.090000
  Q     17.740000    5.060000    5.610000
  Q     13.880000    0.200000   12.820000
  Q     14.000000    1.320000   13.920000
  Q     13.780000    0.970000   13.130000
  Q      6.680000    5.700000    4.230000
  Q      6.060000    7.000000    4.910000
  Q      6.570000    6.320000    4.850000
  Q     15.400000   12.180000   15.370000
  Q     14.760000   12.880000   16.580000
  Q     14.880000   12.690000   15.780000
  Q     15.150000   12.860000   18.880000
  Q     13.700000   13.350000   18.590000
  Q     14.420000   12.890000   18.470000
  Q     11.400000   11.390000    0.870000
  Q     11.140000   11.170000    2.310000
  Q     11.520000   11.050000    1.590000
  Q     20.740000    9.700000    3.700000
  Q     19.940000    9.160000    4.890000
  Q     20.360000    9.730000    4.450000
  Q      5.070000   13.650000   19.260000
  Q      6.550000   14.130000   19.220000
  Q      5.710000   14.230000   19.220000
  Q      4.610000   16.820000    8.090000
  Q      4.210000   17.590000    6.840000
  Q      4.610000   16.980000    7.270000
  Q     13.170000   19.930000   12.240000
  Q     14.370000   20.200000   11.240000
  Q     13.950000   20.240000   11.950000
  Q      8.890000   18.850000   15.210000
  Q      8.960000   17.880000   14.040000
  Q      8.990000   18.100000   14.860000
  Q     14.440000    8.520000   16.910000
  Q     15.800000    8.520000   17.770000
  Q     15.280000    8.570000   17.070000
  Q     11.030000   19.510000   13.520000
  Q     11.670000   18.700000   12.460000
  Q     11.640000   19.090000   13.200000
  Q      9.290000    2.180000    9.750000
  Q      9.750000    1.010000    8.890000
  Q      9.270000    1.370000    9.460000
  Q      8.300000   15.780000    6.710000
  Q      8.460000   14.540000    5.890000
  Q      8.690000   15.060000    6.480000
  Q      3.640000   14.820000   17.380000
  Q      3.040000   15.430000   16.130000
  Q      3.130000   14.820000   16.730000
  Q     10.780000   13.060000   21.650000
  Q     12.400000   13.030000   21.420000
  Q     11.560000   12.760000   21.360000
  Q     13.170000    8.480000   22.290000
  Q     12.940000    9.290000   20.900000
  Q     12.810000    8.720000   21.540000
  Q     14.160000    0.780000    7.430000
  Q     13.540000    1.550000    6.080000
  Q     13.720000    0.910000    6.650000
  Q      7.940000    7.200000   20.440000
  Q      8.060000    8.400000   21.460000
  Q      7.760000    7.970000   20.780000
  Q      7.010000    5.420000   10.130000
  Q      6.690000    5.750000   11.490000
  Q      6.720000    5.940000   10.700000
  Q     12.880000   19.270000    9.000000
  Q     13.170000   20.620000    8.400000
  Q     13.040000   19.790000    8.380000
  Q     11.910000    3.290000    5.310000
  Q     13.140000    4.040000    5.790000
  Q     12.730000    3.480000    5.370000
  Q     14.610000   13.630000    6.340000
  Q     14.130000   14.290000    7.720000
  Q     14.340000   13.650000    7.160000
  Q     14.560000   17.630000    3.440000
  Q     13.340000   16.820000    3.660000
  Q     13.770000   17.520000    3.560000
  Q      3.260000    4.120000   13.280000
  Q      2.480000    4.500000   14.580000
  Q      3.130000    4.530000   14.020000
  Q     20.510000    6.530000    7.990000
  Q     19.920000    5.750000    6.800000
  Q     20.030000    5.920000    7.610000
  Q     11.600000   16.740000    6.700000
  Q     10.510000   15.500000    6.910000
  Q     11.310000   15.900000    6.840000
  Q     13.490000   11.220000   19.440000
  Q     12.210000   11.220000   20.140000
  Q     12.800000   10.850000   19.770000
  Q      4.830000    8.810000    5.910000
  Q      3.850000    8.550000    4.700000
  Q      4.490000    8.390000    5.250000
  Q      6.050000   15.120000   11.640000
  Q      6.220000   14.760000   13.220000
  Q      5.840000   15.030000   12.500000
  Q      8.100000   11.620000   16.840000
  Q      9.450000   10.890000   16.790000
  Q      8.920000   11.540000   16.680000
  Q     14.900000   20.290000   13.730000
  Q     16.040000   20.960000   14.510000
  Q     15.300000   20.560000   14.440000
  Q     17.430000    7.870000   15.650000
  Q     18.320000    6.580000   15.920000
  Q     17.880000    7.160000   15.420000
  Q      2.260000   16.380000   14.420000
  Q      2.870000   17.580000   15.230000
  Q      2.800000   16.770000   14.920000
  Q      5.910000    9.490000    3.280000
  Q      5.470000    9.030000    1.790000
  Q      5.450000    9.480000    2.550000
  Q      4.240000    6.370000    8.400000
  Q      5.390000    6.860000    9.250000
  Q      4.750000    6.960000    8.730000
  Q      4.180000   18.120000    9.910000
  Q      4.150000   16.690000   10.670000
  Q      4.150000   17.240000   10.010000
  Q      6.030000   15.030000   16.200000
  Q      4.910000   13.950000   15.940000
  Q      5.680000   14.250000   16.020000
  Q     16.000000   16.520000   12.610000
  Q     15.090000   17.110000   13.760000
  Q     15.820000   16.960000   13.330000
  Q     12.010000   15.160000    5.200000
  Q     13.230000   14.510000    4.530000
  Q     12.510000   14.980000    4.540000
  Q      0.300000    7.880000   15.830000
  Q      0.260000    7.270000   14.670000
  Q      0.570000    7.830000   15.120000
  Q      8.310000   13.270000   20.530000
  Q      8.760000   13.690000   19.050000
  Q      8.300000   13.280000   19.680000
  Q     12.420000    9.370000    2.160000
  Q     13.580000    9.460000    3.120000
  Q     13.020000    9.040000    2.660000
  Q     15.040000    2.500000   10.600000
  Q     13.860000    1.780000   11.510000
  Q     14.220000    2.270000   10.870000
  Q     20.460000   14.460000    5.770000
  Q     19.230000   14.860000    6.580000
  Q     19.650000   14.720000    5.880000
  Q      8.600000    6.620000   14.000000
  Q      7.950000    7.550000   14.960000
  Q      8.010000    6.830000   14.510000
  Q     21.210000   11.900000   10.930000
  Q     21.300000   10.870000   12.150000
  Q     21.080000   11.150000   11.370000
  Q     11.140000   14.830000    3.180000
  Q     10.290000   15.640000    2.170000
  Q     10.620000   14.940000    2.520000
  Q     16.370000   18.570000    9.850000
  Q     15.500000   19.210000    8.880000
  Q     16.010000   18.650000    9.110000
  Q     17.140000   15.540000    4.940000
  Q     17.860000   14.760000    3.820000
  Q     17.230000   15.190000    4.160000
  Q      6.630000   20.240000    7.770000
  Q      7.280000   18.900000    7.540000
  Q      6.970000   19.630000    7.290000
  Q      9.860000   10.440000    4.850000
  Q     10.870000   11.560000    5.090000
  Q     10.220000   11.180000    4.710000
  Q      4.780000    6.030000   18.180000
  Q      5.440000    7.060000   19.000000
  Q      5.300000    6.290000   18.760000
  Q     19.010000    8.810000   15.200000
  Q     19.020000    9.650000   16.460000
  Q     19.070000    9.520000   15.620000
  Q     15.320000    1.380000   16.180000
  Q     14.890000    2.820000   15.840000
  Q     14.980000    1.990000   15.710000
  Q     22.500000   10.870000    6.590000
  Q     21.010000   10.670000    5.860000
  Q     21.620000   11.010000    6.430000
  Q      6.030000    3.180000   12.940000
  Q      6.380000    4.430000   13.740000
  Q      6.280000    3.960000   13.070000
  Q     15.490000   16.050000   19.670000
  Q     14.000000   15.610000   19.270000
  Q     14.640000   15.960000   19.740000
  Q     10.820000    1.890000   11.460000
  Q     11.630000    1.370000   12.720000
  Q     11.150000    1.890000   12.240000
  Q     11.760000    6.120000    7.000000
  Q     12.030000    6.800000    5.790000
  Q     11.530000    6.630000    6.390000
  Q     19.660000    9.800000   11.300000
  Q     18.930000    8.600000   10.720000
  Q     19.230000    9.070000   11.370000
  Q      3.300000   12.120000   12.930000
  Q      4.200000   13.390000   12.820000
  Q      3.500000   12.900000   12.670000
  Q     16.040000   14.140000   11.450000
  Q     14.970000   14.880000   12.330000
  Q     15.630000   14.810000   11.770000
  Q      9.390000   13.610000   16.830000
  Q      9.900000   15.060000   16.640000
  Q      9.690000   14.370000   17.080000
  Q     18.760000   18.420000   11.590000
  Q     20.060000   18.500000   12.400000
  Q     19.550000   18.210000   11.820000
  Q      6.740000   19.490000   10.300000
  Q      6.540000   19.350000   11.910000
  Q      6.660000   19.080000   11.060000
  Q     12.200000    4.000000    2.780000
  Q     10.760000    3.810000    2.360000
  Q     11.490000    4.200000    2.420000
  Q     18.610000    8.180000    7.050000
  Q     18.300000    7.500000    5.820000
  Q     18.610000    8.090000    6.250000
  Q     13.180000    6.930000   20.300000
  Q     13.230000    6.340000   18.750000
  Q     13.320000    6.340000   19.640000
  Q      4.240000    5.240000   15.970000
  Q      3.400000    6.670000   16.030000
  Q      3.860000    5.970000   16.320000
  Q     12.780000   14.370000   13.440000
  Q     13.940000   14.020000   14.450000
  Q     13.580000   14.360000   13.750000
  Q      4.430000   17.390000   14.380000
  Q      5.290000   16.820000   13.250000
  Q      5.030000   17.410000   13.770000
  Q      8.710000    8.640000    4.850000
  Q      9.790000    8.350000    5.990000
  Q      9.140000    8.780000    5.600000
  Q      4.140000   18.930000   12.390000
  Q      4.290000   20.060000   11.420000
  Q      3.880000   19.570000   11.940000
  Q      8.190000    6.570000    8.980000
  Q      8.320000    5.560000    7.710000
  Q      8.390000    5.820000    8.530000
  Q     12.060000   18.000000   20.060000
  Q     11.260000   16.910000   19.300000
  Q     11.850000   17.490000   19.400000
  Q      6.110000   13.110000    2.140000
  Q      6.080000   11.500000    1.890000
  Q      6.450000   12.300000    1.980000
  Q      0.430000   13.460000   14.670000
  Q      0.040000   12.040000   15.080000
  Q      0.080000   12.900000   15.170000

----------------------------
CARTESIAN COORDINATES (A.U.)
----------------------------
  NO LB      ZA    FRAG     MASS         X           Y           Z
   0 C     6.0000    0    12.011   24.415262   19.615357   20.276761
   1 H     1.0000    0     1.008   25.908145   18.462624   20.768090
   2 H     1.0000    0     1.008   25.114460   21.523981   19.879919
   3 C     6.0000    0    12.011   22.676714   19.766535   22.657816
   4 H     1.0000    0     1.008   21.826337   17.820117   22.865686
   5 H     1.0000    0     1.008   23.886138   20.068892   24.282981
   6 C     6.0000    0    12.011   20.579118   21.712953   22.620022
   7 H     1.0000    0     1.008   21.183830   23.527090   21.901926
   8 H     1.0000    0     1.008   19.879919   22.034207   24.490851
   9 C     6.0000    0    12.011   18.424830   20.900371   20.862577
  10 H     1.0000    0     1.008   17.536659   19.048439   21.467289
  11 H     1.0000    0     1.008   19.142926   20.900371   18.935056
  12 O     8.0000    0    15.999   16.346131   22.752303   21.089344
  13 H     1.0000    0     1.008   15.439063   22.733405   22.771200
  14 O     8.0000    0    15.999   23.281426   18.613802   18.198063
  15 H     1.0000    0     1.008   24.434159   18.859467   16.856357
  16 O     8.0000    0    15.999   12.698960   16.705179   22.714508
  17 H     1.0000    0     1.008   11.716302   18.084679   21.731851
  18 H     1.0000    0     1.008   11.432843   15.684727   23.640474
  19 O     8.0000    0    15.999   26.172707   18.405933   13.435953
  20 H     1.0000    0     1.008   27.873460   19.142926   13.832795
  21 H     1.0000    0     1.008   25.190049   19.842124   13.020213
  22 O     8.0000    0    15.999   24.056214   12.491090   22.487741
  23 H     1.0000    0     1.008   23.810549   10.865925   23.319220
  24 H     1.0000    0     1.008   22.827892   12.736754   21.127138
  25 O     8.0000    0    15.999   10.582466   20.654707   19.558665
  26 H     1.0000    0     1.008    9.580911   20.012200   18.160268
  27 H     1.0000    0     1.008   11.772994   21.864131   18.802775
  28 O     8.0000    0    15.999   27.949050   14.456405   15.779213
  29 H     1.0000    0     1.008   27.892358   14.758761   17.574453
  30 H     1.0000    0     1.008   26.947495   15.552446   14.683172
  31 O     8.0000    0    15.999   23.886138    8.031336   25.397919
  32 H     1.0000    0     1.008   25.190049    8.106925   26.682933
  33 H     1.0000    0     1.008   23.942830    6.406172   24.547542
  34 O     8.0000    0    15.999   28.686043   16.950843    8.541562
  35 H     1.0000    0     1.008   28.742734   15.117809    8.220309
  36 H     1.0000    0     1.008   27.703385   17.347686   10.091138
  37 O     8.0000    0    15.999   18.991748   11.073795   25.095563
  38 H     1.0000    0     1.008   20.220070   12.188734   24.339673
  39 H     1.0000    0     1.008   19.709844    9.467528   25.605789
  40 O     8.0000    0    15.999   13.133597   21.089344   26.399474
  41 H     1.0000    0     1.008   12.717857   19.709844   25.435714
  42 H     1.0000    0     1.008   11.489535   21.259419   27.193159
  43 O     8.0000    0    15.999   14.607583   19.313001   15.174501
  44 H     1.0000    0     1.008   15.287884   18.519316   13.624925
  45 H     1.0000    0     1.008   15.684727   20.786987   15.155604
  46 O     8.0000    0    15.999   17.328789   23.829447   14.928836
  47 H     1.0000    0     1.008   16.931946   25.530200   14.267432
  48 H     1.0000    0     1.008   17.215405   23.980625   16.648487
  49 O     8.0000    0    15.999   15.949289   15.590241   18.387035
  50 H     1.0000    0     1.008   15.155604   15.382371   19.917713
  51 H     1.0000    0     1.008   15.514652   17.215405   17.612248
  52 O     8.0000    0    15.999    9.448631   18.349241   14.456405
  53 H     1.0000    0     1.008   11.168281   19.161823   14.853247
  54 H     1.0000    0     1.008    9.373042   16.667385   15.098912
  55 O     8.0000    0    15.999   20.314556   26.569549   26.815214
  56 H     1.0000    0     1.008   20.938166   27.646693   28.138022
  57 H     1.0000    0     1.008   18.519316   26.342782   27.306543
  58 O     8.0000    0    15.999    7.332137   19.747638   24.075111
  59 H     1.0000    0     1.008    6.330583   18.330343   23.829447
  60 H     1.0000    0     1.008    7.993542   20.295659   22.393255
  61 O     8.0000    0    15.999   23.470399   20.862577   29.385241
  62 H     1.0000    0     1.008   24.944385   21.901926   29.517522
  63 H     1.0000    0     1.008   22.053104   22.053104   28.969502
  64 O     8.0000    0    15.999   11.697405   24.906590   16.383926
  65 H     1.0000    0     1.008   11.527329   24.509748   14.607583
  66 H     1.0000    0     1.008   12.491090   26.531755   16.837460
  67 O     8.0000    0    15.999   30.878125   18.557111   22.903481
  68 H     1.0000    0     1.008   32.616673   18.046885   22.714508
  69 H     1.0000    0     1.008   30.556872   19.294104   24.453056
  70 O     8.0000    0    15.999    6.462863   24.774310   18.538213
  71 H     1.0000    0     1.008    6.330583   24.925488   20.409042
  72 H     1.0000    0     1.008    8.182514   24.698721   18.141371
  73 O     8.0000    0    15.999   33.523742   15.174501   16.913049
  74 H     1.0000    0     1.008   32.030858   15.949289   16.365028
  75 H     1.0000    0     1.008   33.410358   13.341467   16.799665
  76 O     8.0000    0    15.999    9.637603   13.095802   25.719173
  77 H     1.0000    0     1.008    8.522665   11.527329   25.964837
  78 H     1.0000    0     1.008   11.149384   12.717857   26.607344
  79 O     8.0000    0    15.999   26.172707    9.713192   14.097357
  80 H     1.0000    0     1.008   26.550652   11.413946   14.569788
  81 H     1.0000    0     1.008   25.095563    8.881713   15.457960
  82 O     8.0000    0    15.999   15.212295   26.134912   27.155365
  83 H     1.0000    0     1.008   13.889487   26.777419   28.232508
  84 H     1.0000    0     1.008   14.550891   24.509748   26.928597
  85 O     8.0000    0    15.999   22.582227   22.714508   12.207631
  86 H     1.0000    0     1.008   21.391700   22.979070   13.643823
  87 H     1.0000    0     1.008   23.999522   23.923933   12.604473
  88 O     8.0000    0    15.999   31.841885   10.336802   18.084679
  89 H     1.0000    0     1.008   30.802536    9.807679   16.629590
  90 H     1.0000    0     1.008   30.613563   11.319460   19.237412
  91 O     8.0000    0    15.999   31.256070   19.634255   13.795001
  92 H     1.0000    0     1.008   32.541084   18.481522   13.095802
  93 H     1.0000    0     1.008   32.219831   20.749193   14.834350
  94 O     8.0000    0    15.999   20.862577   13.738309   18.821672
  95 H     1.0000    0     1.008   21.845234   15.306782   18.519316
  96 H     1.0000    0     1.008   19.048439   14.248535   18.538213
  97 O     8.0000    0    15.999   17.952398   28.383687   21.278316
  98 H     1.0000    0     1.008   17.971296   26.720728   22.034207
  99 H     1.0000    0     1.008   19.615357   28.667145   20.484631
 100 O     8.0000    0    15.999   28.799426   14.135151   21.372803
 101 H     1.0000    0     1.008   29.479728   15.722521   22.185385
 102 H     1.0000    0     1.008   27.023084   13.719412   21.788542
 103 Q     0.6645    0     0.000   18.046885   36.981940   15.835905
 104 Q     0.6645    0     0.000   17.820117   37.983495   18.651597
 105 Q    -1.3290    0     0.000   17.631145   36.925249   17.442172
 106 Q     0.6645    0     0.000   14.683172   32.389906   30.046646
 107 Q     0.6645    0     0.000   13.209186   33.126899   32.484392
 108 Q    -1.3290    0     0.000   13.700514   32.087550   31.293865
 109 Q     0.6645    0     0.000   11.338357   35.942591   27.495515
 110 Q     0.6645    0     0.000   10.393494   38.701591   28.232508
 111 Q    -1.3290    0     0.000   11.470638   37.473269   28.100228
 112 Q     0.6645    0     0.000   34.393016   26.645138   15.533549
 113 Q     0.6645    0     0.000   35.243392   28.950604   17.083124
 114 Q    -1.3290    0     0.000   34.695372   28.251406   15.835905
 115 Q     0.6645    0     0.000   31.218276    4.781007   17.253200
 116 Q     0.6645    0     0.000   32.465495    6.991987   18.783878
 117 Q    -1.3290    0     0.000   31.917474    5.423514   18.557111
 118 Q     0.6645    0     0.000   12.094247   18.991748   35.016625
 119 Q     0.6645    0     0.000   13.039110   16.686282   36.188255
 120 Q    -1.3290    0     0.000   12.113145   17.461069   35.205598
 121 Q     0.6645    0     0.000   37.265399    6.047124   17.782323
 122 Q     0.6645    0     0.000   37.643345    8.825021   18.103576
 123 Q    -1.3290    0     0.000   37.832317    7.313240   18.519316
 124 Q     0.6645    0     0.000   22.657816   30.972611   30.216721
 125 Q     0.6645    0     0.000   20.238967   32.200933   28.856118
 126 Q    -1.3290    0     0.000   21.259419   31.067098   29.404139
 127 Q     0.6645    0     0.000    3.987322   26.909700   24.774310
 128 Q     0.6645    0     0.000    1.530678   28.534865   24.377467
 129 Q    -1.3290    0     0.000    2.702308   27.835666   25.246741
 130 Q     0.6645    0     0.000   25.945940   32.597776   31.010406
 131 Q     0.6645    0     0.000   24.528645   32.427700   33.637125
 132 Q    -1.3290    0     0.000   25.643584   31.993063   32.484392
 133 Q     0.6645    0     0.000   31.350557   21.977515   21.675159
 134 Q     0.6645    0     0.000   32.200933   23.980625   23.602679
 135 Q    -1.3290    0     0.000   31.785194   23.413707   22.147590
 136 Q     0.6645    0     0.000   24.623132   13.738309    6.954192
 137 Q     0.6645    0     0.000   23.035762   11.300562    7.105370
 138 Q    -1.3290    0     0.000   24.226289   12.283220    7.558905
 139 Q     0.6645    0     0.000   28.610454   28.799426   18.632700
 140 Q     0.6645    0     0.000   28.553762   30.840331   16.799665
 141 Q    -1.3290    0     0.000   28.024639   29.517522   17.366583
 142 Q     0.6645    0     0.000   31.860783   11.829686   26.267193
 143 Q     0.6645    0     0.000   29.782084   12.113145   24.339673
 144 Q    -1.3290    0     0.000   30.462385   11.527329   25.643584
 145 Q     0.6645    0     0.000   16.157158   30.915920   34.166249
 146 Q     0.6645    0     0.000   17.064227   33.164694   35.715824
 147 Q    -1.3290    0     0.000   16.837460   31.634015   35.413468
 148 Q     0.6645    0     0.000   13.454850   17.366583   31.879680
 149 Q     0.6645    0     0.000   14.626480   18.349241   29.196269
 150 Q    -1.3290    0     0.000   14.286330   17.309891   30.424591
 151 Q     0.6645    0     0.000   35.413468   24.226289    5.858151
 152 Q     0.6645    0     0.000   37.303194   25.870351    7.445521
 153 Q    -1.3290    0     0.000   36.509509   25.435714    6.122713
 154 Q     0.6645    0     0.000   17.876809   41.479489   20.446837
 155 Q     0.6645    0     0.000   16.365028   39.362995   21.656261
 156 Q    -1.3290    0     0.000   17.763426   40.081091   21.221624
 157 Q     0.6645    0     0.000   28.289200   11.036001    6.954192
 158 Q     0.6645    0     0.000   31.085995   10.979309    7.917953
 159 Q    -1.3290    0     0.000   29.857673   11.508432    6.991987
 160 Q     0.6645    0     0.000   27.344337   24.415262    7.124268
 161 Q     0.6645    0     0.000   29.026193   26.512858    7.823466
 162 Q    -1.3290    0     0.000   27.797871   25.530200    8.050233
 163 Q     0.6645    0     0.000   41.347208   13.624925   23.413707
 164 Q     0.6645    0     0.000   38.758283   14.720967   22.997967
 165 Q    -1.3290    0     0.000   39.854324   13.719412   23.678268
 166 Q     0.6645    0     0.000   34.411913   23.886138   18.538213
 167 Q     0.6645    0     0.000   36.282742   22.412152   16.913049
 168 Q    -1.3290    0     0.000   34.941036   23.168042   17.196508
 169 Q     0.6645    0     0.000    7.445521   11.772994   10.374596
 170 Q     0.6645    0     0.000    5.536898    9.656501    9.750987
 171 Q    -1.3290    0     0.000    6.330583   10.639158   10.714747
 172 Q     0.6645    0     0.000   23.753858    5.461309   18.235857
 173 Q     0.6645    0     0.000   21.335008    7.199857   18.235857
 174 Q    -1.3290    0     0.000   22.714508    6.557350   17.650042
 175 Q     0.6645    0     0.000   19.917713    7.199857   33.013516
 176 Q     0.6645    0     0.000   22.676714    6.803014   33.051310
 177 Q    -1.3290    0     0.000   21.372803    7.445521   32.503290
 178 Q     0.6645    0     0.000    4.988877   22.109796   11.829686
 179 Q     0.6645    0     0.000    5.234541   19.577563   10.658055
 180 Q    -1.3290    0     0.000    4.894391   20.541323   11.867480
 181 Q     0.6645    0     0.000   14.607583    9.373042   29.800981
 182 Q     0.6645    0     0.000   15.250090    6.840809   28.629351
 183 Q    -1.3290    0     0.000   14.494199    7.785672   29.687598
 184 Q     0.6645    0     0.000   27.155365   35.791413   28.591556
 185 Q     0.6645    0     0.000   24.547542   34.808755   27.287645
 186 Q    -1.3290    0     0.000   25.964837   34.695372   28.156919
 187 Q     0.6645    0     0.000    4.403062   26.361680   12.755651
 188 Q     0.6645    0     0.000    6.746322   26.437269   10.865925
 189 Q    -1.3290    0     0.000    5.442411   25.756967   11.659610
 190 Q     0.6645    0     0.000   16.742974    9.826576   36.377228
 191 Q     0.6645    0     0.000   18.405933   10.506877   38.531516
 192 Q    -1.3290    0     0.000   17.026432   10.469083   37.775625
 193 Q     0.6645    0     0.000    3.023562   29.517522   16.005980
 194 Q     0.6645    0     0.000    4.081808   27.136467   17.309891
 195 Q    -1.3290    0     0.000    3.023562   27.949050   16.440617
 196 Q     0.6645    0     0.000   19.974405   36.112666   11.716302
 197 Q     0.6645    0     0.000   17.253200   37.208708   11.961966
 198 Q    -1.3290    0     0.000   18.764981   37.019735   12.302117
 199 Q     0.6645    0     0.000   32.711159   13.284775    5.215644
 200 Q     0.6645    0     0.000   34.147351   15.533549    5.329028
 201 Q    -1.3290    0     0.000   34.052865   14.002871    5.083363
 202 Q     0.6645    0     0.000   20.900371   26.871906   34.941036
 203 Q     0.6645    0     0.000   21.845234   26.323885   37.529961
 204 Q    -1.3290    0     0.000   22.034207   26.815214   36.018180
 205 Q     0.6645    0     0.000   23.753858   18.632700   31.747399
 206 Q     0.6645    0     0.000   23.753858   17.782323   34.638680
 207 Q    -1.3290    0     0.000   23.829447   17.574453   33.013516
 208 Q     0.6645    0     0.000    9.656501   21.939720   12.150939
 209 Q     0.6645    0     0.000   12.056453   23.168042   10.620261
 210 Q    -1.3290    0     0.000   10.809233   23.035762   11.716302
 211 Q     0.6645    0     0.000   15.930391   23.168042    8.825021
 212 Q     0.6645    0     0.000   14.154049   24.377467    7.143165
 213 Q    -1.3290    0     0.000   14.815453   24.188495    8.503768
 214 Q     0.6645    0     0.000   37.397680   25.190049   26.512858
 215 Q     0.6645    0     0.000   35.281187   27.041981   27.060878
 216 Q    -1.3290    0     0.000   36.074872   25.983734   26.153810
 217 Q     0.6645    0     0.000   25.851454   21.599570    3.231432
 218 Q     0.6645    0     0.000   26.985289   24.245186    2.966870
 219 Q    -1.3290    0     0.000   26.871906   22.771200    3.477096
 220 Q     0.6645    0     0.000   18.859467   18.802775    1.530678
 221 Q     0.6645    0     0.000   19.237412   15.892597    2.003110
 222 Q    -1.3290    0     0.000   18.387035   17.309891    1.908623
 223 Q     0.6645    0     0.000    6.236096   17.536659   32.956824
 224 Q     0.6645    0     0.000    8.201411   17.498864   34.884344
 225 Q    -1.3290    0     0.000    6.784117   17.272097   34.374118
 226 Q     0.6645    0     0.000   39.740941   16.761871   15.684727
 227 Q     0.6645    0     0.000   42.273174   15.174501   16.554001
 228 Q    -1.3290    0     0.000   40.780290   15.476857   15.873700
 229 Q     0.6645    0     0.000   39.174023   19.672049   27.495515
 230 Q     0.6645    0     0.000   41.649564   18.405933   27.230954
 231 Q    -1.3290    0     0.000   40.723598   19.634255   27.117570
 232 Q     0.6645    0     0.000   14.078460   31.350557   16.119364
 233 Q     0.6645    0     0.000   12.283220   32.125344   13.662720
 234 Q    -1.3290    0     0.000   13.700514   31.993063   14.645378
 235 Q     0.6645    0     0.000   20.616912   34.865447   19.256309
 236 Q     0.6645    0     0.000   22.072001   32.446598   20.068892
 237 Q    -1.3290    0     0.000   21.694056   34.071762   20.087789
 238 Q     0.6645    0     0.000   31.010406   16.327234   37.605550
 239 Q     0.6645    0     0.000   30.953714   13.341467   36.887454
 240 Q    -1.3290    0     0.000   31.180481   14.947734   36.698482
[...]
 314   Q   :    0.139167875   -0.266487572    0.092967569
 315   Q   :    0.094545868    0.262576550    0.097428824
 316   Q   :   -0.227519253    0.005457634   -0.182961495
 317   Q   :   -0.179091131    0.161745707   -0.019923792
 318   Q   :    0.090006480   -0.188983618   -0.160331755
 319   Q   :    0.094164003    0.018187807    0.177647504
 320   Q   :    0.161145748    0.156218088   -0.186593673
 321   Q   :   -0.182468368   -0.217713592   -0.075115771
 322   Q   :    0.012209168    0.055562503    0.256679447
 323   Q   :    0.142399053    0.045724564    0.232494663
 324   Q   :    0.027636623    0.138654940   -0.214900724
 325   Q   :   -0.184336649   -0.182572721   -0.010700196
 326   Q   :    0.104750929   -0.057224316   -0.253383642
 327   Q   :   -0.232917508    0.080987516    0.038477523
 328   Q   :    0.129975016   -0.024095876    0.222285888
 329   Q   :   -0.037186637   -0.260349325    0.142515546
 330   Q   :   -0.067692151    0.033054054   -0.236559097
 331   Q   :    0.104305492    0.216188615    0.105968047
 332   Q   :    0.193222034    0.050536153   -0.189314949
 333   Q   :   -0.185601751    0.175853548    0.109919321
 334   Q   :   -0.004594706   -0.226516826    0.087601900
 335   Q   :    0.168351305   -0.221134040   -0.017505531
 336   Q   :   -0.181347890    0.091698813   -0.234732792
 337   Q   :    0.015900847    0.128226500    0.240035980
 338   Q   :   -0.156430870   -0.145011119    0.148909178
 339   Q   :    0.256593665    0.015545198    0.002212636
 340   Q   :   -0.102524676    0.133642496   -0.155125757
 341   Q   :    0.016216167    0.305130057    0.042364587
 342   Q   :    0.232782993   -0.182089869    0.020857059
 343   Q   :   -0.243701532   -0.130962848   -0.066429123
 344   Q   :   -0.043420665   -0.156428845   -0.242377556
 345   Q   :   -0.289216214    0.080519411    0.139113096
 346   Q   :    0.326700764    0.077078779    0.111339572
 347   Q   :    0.118642242   -0.090821992   -0.240476015
 348   Q   :    0.009311634    0.254346566    0.119897472
 349   Q   :   -0.135469756   -0.156052211    0.127939308
 350   Q   :   -0.025734466   -0.207114133    0.150394884
 351   Q   :    0.187524765    0.245614183    0.072541626
 352   Q   :   -0.163437896   -0.028248692   -0.225064166
 353   Q   :    0.164775666    0.058107417    0.178094612
 354   Q   :   -0.143133689    0.151980841   -0.163762855
 355   Q   :   -0.040842181   -0.211277471   -0.018161198
 356   Q   :   -0.025577404    0.184890875    0.193975773
 357   Q   :    0.182266804   -0.205891187    0.009010199
 358   Q   :   -0.143142429    0.023016071   -0.215524072
 359   Q   :   -0.171889033    0.204961390   -0.048899944
 360   Q   :    0.231302745   -0.092183469   -0.139765028
 361   Q   :   -0.057123345   -0.117450826    0.189606971
 362   Q   :    0.048371537    0.141406730    0.216635626
 363   Q   :    0.151024047   -0.026248085   -0.210767190
 364   Q   :   -0.196293099   -0.114954971   -0.019182457
 365   Q   :   -0.251790912   -0.045232251    0.066958788
 366   Q   :    0.200539956    0.111082315    0.162658990
 367   Q   :    0.050290504   -0.061760888   -0.215441970
 368   Q   :   -0.094193570   -0.100804142    0.242634353
 369   Q   :    0.212563405   -0.101094830   -0.165803668
 370   Q   :   -0.111801812    0.197494440   -0.070493219
 371   Q   :    0.035984084   -0.281634459   -0.105739794
 372   Q   :    0.053027677    0.080933684    0.214505228
 373   Q   :   -0.087585306    0.192730822   -0.101450200
 374   Q   :    0.028737549   -0.178251577   -0.199647939
 375   Q   :   -0.169902873    0.215179623   -0.003622651
 376   Q   :    0.139272026   -0.035597471    0.202447431
 377   Q   :    0.181922943   -0.177275647   -0.134176850
 378   Q   :   -0.032150455    0.059713828    0.272195235
 379   Q   :   -0.138267779    0.125329947   -0.144396578
 380   Q   :    0.244849014   -0.006320000    0.141900236
 381   Q   :   -0.212370561    0.146324600    0.051765785
 382   Q   :   -0.030601510   -0.140571950   -0.194633127
 383   Q   :   -0.064533873    0.135801775   -0.286280038
 384   Q   :   -0.145772296    0.047385199    0.245754525
 385   Q   :    0.205631398   -0.178182794    0.036864576
 386   Q   :    0.130992928   -0.022995185   -0.261489465
 387   Q   :   -0.139439320   -0.197730316    0.141595204
 388   Q   :    0.014674945    0.218253099    0.098214630
 389   Q   :   -0.179736619   -0.190010527    0.009542986
 390   Q   :    0.286023879   -0.045246434   -0.003117386
 391   Q   :   -0.100824543    0.240483113   -0.007903699
 392   Q   :    0.000216260   -0.041139551    0.272451927
 393   Q   :   -0.139565287    0.214351728   -0.132843384
 394   Q   :    0.124870971   -0.166959477   -0.141522761
 395   Q   :   -0.219355380   -0.093174141    0.064376325
 396   Q   :    0.148791850   -0.020500731   -0.279387596
 397   Q   :    0.068658601    0.117432913    0.197169213
 398   Q   :   -0.035396626    0.275211303    0.114532179
 399   Q   :   -0.009272572   -0.051097265   -0.250777901
 400   Q   :    0.050994706   -0.211440122    0.142310538
 401   Q   :   -0.268601418   -0.018628363   -0.048223660
 402   Q   :    0.152179959   -0.004444855    0.209690033
 403   Q   :    0.111119407    0.017943274   -0.165441092
 404   Q   :   -0.252542355    0.166104649    0.117945827
 405   Q   :    0.006058451   -0.117619111   -0.240880031
 406   Q   :    0.234769925   -0.040250423    0.136244535
 407   Q   :    0.024044201    0.247376453    0.076701651
 408   Q   :    0.193919578   -0.120064950   -0.221268253
 409   Q   :   -0.222884067   -0.140908760    0.138708295
 410   Q   :   -0.128832760    0.217858112    0.058007687
 411   Q   :   -0.099097702   -0.183338991   -0.210690498
 412   Q   :    0.221731322   -0.032053414    0.138547634
 413   Q   :    0.196920655    0.016642185    0.227904379
 414   Q   :   -0.009462575    0.191048269   -0.171430279
 415   Q   :   -0.188829719   -0.207426977   -0.047912963
 416   Q   :   -0.229114947    0.108219630    0.086686519
 417   Q   :    0.245397238    0.095256115    0.016798739
 418   Q   :   -0.023383781   -0.207544045   -0.094488958
 419   Q   :    0.133046332   -0.071999245    0.243804841
 420   Q   :    0.060382389    0.169922058   -0.188701029
 421   Q   :   -0.193733976   -0.102406836   -0.044983860
 422   Q   :    0.132774761   -0.026381141    0.223613085
 423   Q   :   -0.045175300    0.200499928   -0.168553887
 424   Q   :   -0.083855263   -0.181043416   -0.053155716
 425   Q   :    0.062506360   -0.229368737   -0.096455723
 426   Q   :    0.111272239    0.138765288    0.232461506
 427   Q   :   -0.174757151    0.096050162   -0.122756601
 428   Q   :    0.105298384   -0.199103663   -0.189346990
 429   Q   :   -0.004090961   -0.088253713    0.296098794
 430   Q   :   -0.100103175    0.288095058   -0.095899040
 431   Q   :   -0.054590505   -0.174329001    0.240830681
 432   Q   :    0.047155381    0.293305226    0.029517744
 433   Q   :    0.011263118   -0.113160249   -0.268653504
 434   Q   :   -0.274411643   -0.049525673   -0.011006968
 435   Q   :    0.144672807    0.218205338    0.165419077
 436   Q   :    0.134713831   -0.162758670   -0.156950006
 437   Q   :    0.082106434    0.013357173   -0.251935800
 438   Q   :   -0.066401670    0.199680860    0.148953942
 439   Q   :   -0.008831986   -0.210829010    0.111556830
 440   Q   :    0.314614256    0.022709895   -0.052342023
 441   Q   :   -0.140226499   -0.254988232    0.034032967
 442   Q   :   -0.163559028    0.235108011    0.004148881
 443   Q   :    0.030069316   -0.133251829   -0.227424822
 444   Q   :   -0.222898184   -0.019628115    0.176121983
 445   Q   :    0.181361351    0.147668518    0.060463215
 446   Q   :    0.147846402    0.182806159    0.105026481
 447   Q   :   -0.029828629   -0.054650658   -0.303659398
 448   Q   :   -0.121490653   -0.138431348    0.190918598
 449   Q   :    0.065840741    0.225858452   -0.023386101
 450   Q   :   -0.213050888   -0.100372132    0.030080959
 451   Q   :    0.151966409   -0.125790226    0.007778084
 452   Q   :    0.222331731    0.128462302   -0.091776340
 453   Q   :   -0.230902543    0.165066070    0.150540053
 454   Q   :    0.007940592   -0.286468236   -0.060211597
 455   Q   :    0.104741161    0.139191010    0.198355517
 456   Q   :   -0.215601095    0.062896923   -0.176719221
 457   Q   :    0.102327012   -0.194364332   -0.023771686
 458   Q   :    0.055510671    0.022698479   -0.238540731
 459   Q   :    0.125223355   -0.088047442    0.232893427
 460   Q   :   -0.185602356    0.056158155    0.009914018
 461   Q   :   -0.274341117    0.017910054    0.052488704
 462   Q   :    0.174921582   -0.227479443    0.042478839
 463   Q   :    0.106623544    0.200279655   -0.102301647
 464   Q   :   -0.105549309   -0.086906716   -0.221406268
 465   Q   :    0.267735879    0.138896302    0.006076975
 466   Q   :   -0.150859798   -0.043295544    0.222717513
 467   Q   :   -0.122614876    0.222338848    0.084486070
 468   Q   :    0.137711106   -0.165020641    0.163684343
 469   Q   :   -0.009133639   -0.059662988   -0.243793782
 470   Q   :   -0.189235401   -0.112311092   -0.172051821
 471   Q   :    0.027437486    0.259746097    0.087021022
 472   Q   :    0.156146672   -0.139544056    0.076789927
 473   Q   :    0.150289071   -0.003837784    0.228613053
 474   Q   :    0.017786536   -0.146700325   -0.228645725
 475   Q   :   -0.173257110    0.146944834    0.003146146
 476   Q   :   -0.167359701   -0.199174419   -0.100373824
 477   Q   :    0.217388004   -0.043254002    0.176008056
 478   Q   :   -0.045460101    0.238415037   -0.078700604
 479   Q   :    0.015731902    0.264948382   -0.026861400
 480   Q   :    0.005950477   -0.171112939    0.224770110
 481   Q   :   -0.023336399   -0.090611020   -0.190189845
 482   Q   :    0.097215290    0.235249333    0.044440874
 483   Q   :   -0.275122902   -0.096526805   -0.029885510
 484   Q   :    0.169990118   -0.143727206   -0.013971495
 485   Q   :    0.046143676   -0.123715760   -0.225887787
 486   Q   :   -0.233494407    0.040153237    0.125456215
 487   Q   :    0.186610881    0.085725864    0.099583222
 488   Q   :   -0.156824677    0.046275283    0.213952383
 489   Q   :    0.214742453   -0.141113043    0.014016274
 490   Q   :   -0.060342498    0.093806788   -0.225132385
 491   Q   :   -0.150461020   -0.002116888    0.331488392
 492   Q   :   -0.155977496   -0.254048059   -0.164169712
 493   Q   :    0.297095294    0.252314841   -0.168931050
 494   Q   :    0.016113952    0.005658795    0.293104478
 495   Q   :    0.136534762    0.122069616   -0.170751458
 496   Q   :   -0.135519464   -0.127115662   -0.103730286
 497   Q   :   -0.195422216    0.115817302   -0.161550512
 498   Q   :    0.180192056    0.164761642    0.153359021
 499   Q   :    0.014608940   -0.277900196    0.000650504
 500   Q   :    0.227127428    0.056000107   -0.075312818
 501   Q   :   -0.104719584   -0.147857697    0.173715367
 502   Q   :   -0.124747857    0.092168657   -0.107311920
 503   Q   :    0.272284074   -0.091530595   -0.023467342
 504   Q   :   -0.133894873    0.040389425    0.257016001
 505   Q   :   -0.138183552    0.052596869   -0.239310916
 506   Q   :    0.222935544   -0.059077845   -0.191875218
 507   Q   :   -0.005867316    0.231600191    0.127351403
 508   Q   :   -0.210161357   -0.166821197    0.055459743
 509   Q   :    0.046083369    0.209068473   -0.121048111
 510   Q   :    0.073268328   -0.084092376    0.247411918
 511   Q   :   -0.111223484   -0.128010885   -0.118072904
 512   Q   :    0.162816655   -0.021807682    0.216208987
 513   Q   :   -0.109634324    0.254620833   -0.112511382
 514   Q   :   -0.063978646   -0.232862194   -0.110139913
 515   Q   :    0.114070607   -0.016596682    0.262877379
 516   Q   :   -0.218559518    0.253624428   -0.072991447
 517   Q   :    0.104247476   -0.236396566   -0.198430070
 518   Q   :   -0.018998189    0.101133439    0.255853544
 519   Q   :    0.219950153   -0.152229941   -0.102855730
 520   Q   :   -0.194867784    0.056677327   -0.153095207
 521   Q   :   -0.118858796    0.202255696    0.191196770
 522   Q   :    0.101349613   -0.241245040    0.107862738
 523   Q   :    0.010343400    0.050493279   -0.297322243
 524   Q   :   -0.119201798   -0.255012569    0.050465882
 525   Q   :    0.212264966    0.112514599    0.127651086
 526   Q   :   -0.087766502    0.145156941   -0.187731978
 527   Q   :   -0.194817176   -0.084470169   -0.209523239
 528   Q   :    0.042728456    0.299522957    0.083309777
 529   Q   :    0.155935879   -0.218022529    0.135721349
 530   Q   :   -0.025713503   -0.254953157   -0.137330378
 531   Q   :   -0.021668808    0.033726810    0.256969080
 532   Q   :    0.055633049    0.225321649   -0.124869309
 533   Q   :    0.119979463   -0.209780217    0.180206462
 534   Q   :   -0.026070016    0.268065677    0.060906335
 535   Q   :   -0.084632736   -0.063309797   -0.232345344
 536   Q   :    0.251184713   -0.044996084    0.042302865
 537   Q   :   -0.158207561   -0.089485312   -0.136571174
 538   Q   :   -0.077449538    0.141006842    0.096811388
 539   Q   :   -0.100094778   -0.285031870   -0.036459807
 540   Q   :    0.025717391    0.167913647    0.252130267
 541   Q   :    0.075292350    0.117174037   -0.213790461
 542   Q   :    0.296532631    0.017974179   -0.030488024
 543   Q   :   -0.189710015   -0.126542704   -0.150972168
 544   Q   :   -0.104904356    0.104832328    0.181384277
 545   Q   :   -0.103282043   -0.009511796   -0.267865185
 546   Q   :    0.153400786   -0.176507068    0.151647517
 547   Q   :   -0.054363693    0.180069271    0.105737341
 548   Q   :    0.095683954   -0.187327747    0.203672919
 549   Q   :    0.203218928    0.057918606   -0.222945842
 550   Q   :   -0.287438106    0.136775190    0.036564816
 551   Q   :    0.133378790    0.230411201   -0.034626503
 552   Q   :   -0.086188350   -0.140405103   -0.207673407
 553   Q   :   -0.050815088   -0.092865412    0.244427896
 554   Q   :   -0.060311116   -0.240484120    0.088253486
 555   Q   :    0.218640710    0.146408434    0.050181757
 556   Q   :   -0.157381272    0.087384979   -0.125492626
 557   Q   :    0.125136068   -0.216279500   -0.107274828
 558   Q   :   -0.193773425    0.020843508    0.158632938
 559   Q   :    0.073888138    0.200878016   -0.056893519
 560   Q   :   -0.096074138   -0.229322490   -0.087286113
 561   Q   :    0.063281608    0.224871349   -0.158059703
 562   Q   :    0.024830744    0.013886884    0.235191228
 563   Q   :   -0.258806144    0.082754625   -0.061464616
 564   Q   :    0.180647380    0.122343234    0.226501802
 565   Q   :    0.085588226   -0.198739664   -0.163218159
 566   Q   :    0.016492021    0.151294469   -0.236285951
 567   Q   :   -0.034895291    0.096230563    0.229784931
 568   Q   :    0.013473306   -0.239059991    0.005019373
 569   Q   :    0.260080632   -0.085748807    0.142101363
 570   Q   :   -0.265166376   -0.154743239   -0.012901538
 571   Q   :    0.002636446    0.238826851   -0.136396715
 572   Q   :   -0.010337178    0.028739161    0.303404763
 573   Q   :   -0.132345042   -0.249901814   -0.164661352
 574   Q   :    0.141282400    0.217581504   -0.142152829
 575   Q   :   -0.037135905    0.176372707    0.183357630
 576   Q   :   -0.018948583    0.012863225   -0.234485470
 577   Q   :    0.064592291   -0.194119200    0.061917751
 578   Q   :    0.109012738   -0.210142804   -0.111804611
 579   Q   :   -0.139286358    0.190386997   -0.100977789
 580   Q   :    0.027923369    0.015146387    0.208598211
 581   Q   :   -0.259714342   -0.000374608   -0.097182198
 582   Q   :    0.100559249   -0.108127061    0.224238189
 583   Q   :    0.151237301    0.111433283   -0.124593225
 584   Q   :   -0.187844947    0.004475499    0.195639511
 585   Q   :    0.081608472   -0.204546003   -0.184399923
 586   Q   :    0.109045823    0.206413832   -0.006916753
 587   Q   :   -0.111187507   -0.044256236   -0.218576860
 588   Q   :    0.199386443   -0.135187438    0.107006266
 589   Q   :   -0.083832485    0.170917464    0.119219108
 590   Q   :    0.116541605   -0.228696449    0.153502239
 591   Q   :    0.178196575    0.176178302   -0.199116423
 592   Q   :   -0.299414205    0.057279479    0.042611641
 593   Q   :   -0.062309136    0.195106727    0.113069757
 594   Q   :   -0.037594445   -0.081471821   -0.258521424
 595   Q   :    0.091128800   -0.113807832    0.137836687
 596   Q   :    0.052679573    0.164842717    0.226578270
 597   Q   :   -0.214837856   -0.199726538   -0.020431588
 598   Q   :    0.161292578    0.040511511   -0.192418748
 599   Q   :   -0.110264637    0.234402006    0.055049748
 600   Q   :   -0.120419533   -0.225557873   -0.026257588
 601   Q   :    0.233358062   -0.007829534   -0.038099966
 602   Q   :    0.128059842    0.182783937   -0.190607711
 603   Q   :   -0.004968923   -0.281834127   -0.041571912
 604   Q   :   -0.128930534    0.092656474    0.236921760

Difference to translation invariance:
           :    0.0014854973    0.0003452006   -0.0001248031

Difference to rotation invariance:
           :   -0.0148991560    0.0300421097   -0.0246544128

Norm of the cartesian gradient     ...    6.1050410556
RMS gradient                       ...    0.1434199254
MAX gradient                       ...    0.3314883920

-------
TIMINGS
-------

Total SCF gradient time            ...      182.892 sec

One electron gradient       ....      23.803 sec  ( 13.0%)
RI-J Coulomb gradient       ....       9.832 sec  (  5.4%)
COSX gradient               ....     112.936 sec  ( 61.7%)
XC gradient                 ....      15.169 sec  (  8.3%)

Maximum memory used throughout the entire SCFGRAD-calculation: 749.3 MB

                            ***************************************
                            *     ORCA property calculations      *
                            ***************************************

                                    ---------------------
                                    Active property flags
                                    ---------------------
   (+) Dipole Moment


------------------------------------------------------------------------------
                       ORCA ELECTRIC PROPERTIES CALCULATION
------------------------------------------------------------------------------

Dipole Moment Calculation                       ... on
Quadrupole Moment Calculation                   ... off
Polarizability Calculation                      ... off
GBWName                                         ... final069.orca.gbw
Electron density                                ... final069.orca.scfp
The origin for moment calculation is the CENTER OF MASS  = (20.171166, 18.487510 19.845564)

-------------
DIPOLE MOMENT
-------------
                                X             Y             Z
Electronic contribution:     -1.69534       0.04116      -1.90887
Nuclear contribution   :      3.76789      15.32546       7.74373
                        -----------------------------------------
Total Dipole Moment    :      2.07255      15.36662       5.83486
                        -----------------------------------------
Magnitude (a.u.)       :     16.56726
Magnitude (Debye)      :     42.11062



--------------------
Rotational spectrum 
--------------------
 
Rotational constants in cm-1:     0.002388     0.001214     0.001144 
Rotational constants in MHz :    71.584850    36.408958    34.306652 

 Dipole components along the rotational axes: 
x,y,z [a.u.] :     5.009099     3.544870    15.388853 
x,y,z [Debye]:    12.732118     9.010345    39.115355 

 

Timings for individual modules:

Sum of individual times         ...      825.633 sec (=  13.761 min)
GTO integral calculation        ...       12.629 sec (=   0.210 min)   1.5 %
SCF iterations                  ...      625.715 sec (=  10.429 min)  75.8 %
SCF Gradient evaluation         ...      187.289 sec (=   3.121 min)  22.7 %
                             ****ORCA TERMINATED NORMALLY****
TOTAL RUN TIME: 0 days 0 hours 13 minutes 53 seconds 41 msec
