
                                 *****************
                                 * O   R   C   A *
                                 *****************

                                            #,                                       
                                            ###                                      
                                            ####                                     
                                            #####                                    
                                            ######                                   
                                           ########,                                 
                                     ,,################,,,,,                         
                               ,,#################################,,                 
                          ,,##########################################,,             
                       ,#########################################, ''#####,          
                    ,#############################################,,   '####,        
                  ,##################################################,,,,####,       
                ,###########''''           ''''###############################       
              ,#####''   ,,,,##########,,,,          '''####'''          '####       
            ,##' ,,,,###########################,,,                        '##       
           ' ,,###''''                  '''############,,,                           
         ,,##''                                '''############,,,,        ,,,,,,###''
      ,#''                                            '''#######################'''  
     '                                                          ''''####''''         
             ,#######,   #######,   ,#######,      ##                                
            ,#'     '#,  ##    ##  ,#'     '#,    #''#        ######   ,####,        
            ##       ##  ##   ,#'  ##            #'  '#       #        #'  '#        
            ##       ##  #######   ##           ,######,      #####,   #    #        
            '#,     ,#'  ##    ##  '#,     ,#' ,#      #,         ##   #,  ,#        
             '#######'   ##     ##  '#######'  #'      '#     #####' # '####'        



                  #######################################################
                  #                        -***-                        #
                  #          Department of theory and spectroscopy      #
                  #    Directorship and core code : Frank Neese         #
                  #        Max Planck Institute fuer Kohlenforschung    #
                  #                Kaiser Wilhelm Platz 1               #
                  #                 D-45470 Muelheim/Ruhr               #
                  #                      Germany                        #
                  #                                                     #
                  #                  All rights reserved                #
                  #                        -***-                        #
                  #######################################################


                         Program Version 5.0.3 -  RELEASE  -


 With contributions from (in alphabetic order):
   Daniel Aravena         : Magnetic Suceptibility
   Michael Atanasov       : Ab Initio Ligand Field Theory (pilot matlab implementation)
   Alexander A. Auer      : GIAO ZORA, VPT2 properties, NMR spectrum
   Ute Becker             : Parallelization
   Giovanni Bistoni       : ED, misc. LED, open-shell LED, HFLD
   Martin Brehm           : Molecular dynamics
   Dmytro Bykov           : SCF Hessian
   Vijay G. Chilkuri      : MRCI spin determinant printing, contributions to CSF-ICE
   Dipayan Datta          : RHF DLPNO-CCSD density
   Achintya Kumar Dutta   : EOM-CC, STEOM-CC
   Dmitry Ganyushin       : Spin-Orbit,Spin-Spin,Magnetic field MRCI
   Miquel Garcia          : C-PCM and meta-GGA Hessian, CC/C-PCM, Gaussian charge scheme
   Yang Guo               : DLPNO-NEVPT2, F12-NEVPT2, CIM, IAO-localization
   Andreas Hansen         : Spin unrestricted coupled pair/coupled cluster methods
   Benjamin Helmich-Paris : MC-RPA, TRAH-SCF, COSX integrals
   Lee Huntington         : MR-EOM, pCC
   Robert Izsak           : Overlap fitted RIJCOSX, COSX-SCS-MP3, EOM
   Marcus Kettner         : VPT2
   Christian Kollmar      : KDIIS, OOCD, Brueckner-CCSD(T), CCSD density, CASPT2, CASPT2-K
   Simone Kossmann        : Meta GGA functionals, TD-DFT gradient, OOMP2, MP2 Hessian
   Martin Krupicka        : Initial AUTO-CI
   Lucas Lang             : DCDCAS
   Marvin Lechner         : AUTO-CI (C++ implementation), FIC-MRCC
   Dagmar Lenk            : GEPOL surface, SMD
   Dimitrios Liakos       : Extrapolation schemes; Compound Job, initial MDCI parallelization
   Dimitrios Manganas     : Further ROCIS development; embedding schemes
   Dimitrios Pantazis     : SARC Basis sets
   Anastasios Papadopoulos: AUTO-CI, single reference methods and gradients
   Taras Petrenko         : DFT Hessian,TD-DFT gradient, ASA, ECA, R-Raman, ABS, FL, XAS/XES, NRVS
   Peter Pinski           : DLPNO-MP2, DLPNO-MP2 Gradient
   Christoph Reimann      : Effective Core Potentials
   Marius Retegan         : Local ZFS, SOC
   Christoph Riplinger    : Optimizer, TS searches, QM/MM, DLPNO-CCSD(T), (RO)-DLPNO pert. Triples
   Tobias Risthaus        : Range-separated hybrids, TD-DFT gradient, RPA, STAB
   Michael Roemelt        : Original ROCIS implementation
   Masaaki Saitow         : Open-shell DLPNO-CCSD energy and density
   Barbara Sandhoefer     : DKH picture change effects
   Avijit Sen             : IP-ROCIS
   Kantharuban Sivalingam : CASSCF convergence, NEVPT2, FIC-MRCI
   Bernardo de Souza      : ESD, SOC TD-DFT
   Georgi Stoychev        : AutoAux, RI-MP2 NMR, DLPNO-MP2 response
   Willem Van den Heuvel  : Paramagnetic NMR
   Boris Wezisla          : Elementary symmetry handling
   Frank Wennmohs         : Technical directorship


 We gratefully acknowledge several colleagues who have allowed us to
 interface, adapt or use parts of their codes:
   Stefan Grimme, W. Hujo, H. Kruse, P. Pracht,  : VdW corrections, initial TS optimization,
                  C. Bannwarth, S. Ehlert          DFT functionals, gCP, sTDA/sTD-DF
   Ed Valeev, F. Pavosevic, A. Kumar             : LibInt (2-el integral package), F12 methods
   Garnet Chan, S. Sharma, J. Yang, R. Olivares  : DMRG
   Ulf Ekstrom                                   : XCFun DFT Library
   Mihaly Kallay                                 : mrcc  (arbitrary order and MRCC methods)
   Jiri Pittner, Ondrej Demel                    : Mk-CCSD
   Frank Weinhold                                : gennbo (NPA and NBO analysis)
   Christopher J. Cramer and Donald G. Truhlar   : smd solvation model
   Lars Goerigk                                  : TD-DFT with DH, B97 family of functionals
   V. Asgeirsson, H. Jonsson                     : NEB implementation
   FAccTs GmbH                                   : IRC, NEB, NEB-TS, DLPNO-Multilevel, CI-OPT
                                                   MM, QMMM, 2- and 3-layer-ONIOM, Crystal-QMMM,
                                                   LR-CPCM, SF, NACMEs, symmetry and pop. for TD-DFT,
                                                   nearIR, NL-DFT gradient (VV10), updates on ESD,
                                                   ML-optimized integration grids
   S Lehtola, MJT Oliveira, MAL Marques          : LibXC Library
   Liviu Ungur et al                             : ANISO software


 Your calculation uses the libint2 library for the computation of 2-el integrals
 For citations please refer to: http://libint.valeyev.net

 Your ORCA version has been built with support for libXC version: 5.1.0
 For citations please refer to: https://tddft.org/programs/libxc/

 This ORCA versions uses:
   CBLAS   interface :  Fast vector & matrix operations
   LAPACKE interface :  Fast linear algebra routines
   SCALAPACK package :  Parallel linear algebra routines
   Shared memory     :  Shared parallel matrices
   BLAS/LAPACK       :  OpenBLAS 0.3.15  USE64BITINT DYNAMIC_ARCH NO_AFFINITY SkylakeX SINGLE_THREADED
        Core in use  :  SkylakeX
   Copyright (c) 2011-2014, The OpenBLAS Project


================================================================================

----- Orbital basis set information -----
Your calculation utilizes the basis: def2-SVP
   F. Weigend and R. Ahlrichs, Phys. Chem. Chem. Phys. 7, 3297 (2005).

The basis set includes element-specific modifications.

Your calculation utilizes the basis: aug-cc-pVTZ 
    H, B-Ne : Obtained from the ccRepo (grant-hill.group.shef.ac.uk/ccrepo) Feb. 2017
              R. A. Kendall, T. H. Dunning, Jr., R. J. Harrison, J. Chem. Phys. 96, 6796 (1992)
         He : Obtained from the ccRepo (grant-hill.group.shef.ac.uk/ccrepo) Feb. 2017
              D. E. Woon, T. H. Dunning, Jr., J. Chem. Phys. 100, 2975 (1994)
  Li-Be, Na : Obtained from the ccRepo (grant-hill.group.shef.ac.uk/ccrepo) Feb. 2017
              B. P. Prascher, D. E. Woon, K. A. Peterson, T. H. Dunning, Jr., A. K. Wilson, Theor. Chem. Acc. 128, 69 (2011)
         Mg : Obtained from the Peterson Research Group Website (tyr0.chem.wsu.edu/~kipeters) Feb. 2017
              B. P. Prascher, D. E. Woon, K. A. Peterson, T. H. Dunning, Jr., A. K. Wilson, Theor. Chem. Acc. 128, 69 (2011)
      Al-Ar : Obtained from the ccRepo (grant-hill.group.shef.ac.uk/ccrepo) Feb. 2017
              D. E. Woon, T. H. Dunning, Jr., J. Chem. Phys. 98, 1358 (1993)
      Sc-Zn : Obtained from the ccRepo (grant-hill.group.shef.ac.uk/ccrepo) Feb. 2017
              N. B. Balabanov, K. A. Peterson, J. Chem. Phys. 123, 064107 (2005)
              N. B. Balabanov, K. A. Peterson, J. Chem. Phys. 125, 074110 (2006)
      Ga-Kr : Obtained from the ccRepo (grant-hill.group.shef.ac.uk/ccrepo) Feb. 2017
              A. K. Wilson, D. E. Woon, K. A. Peterson, T. H. Dunning, Jr., J. Chem. Phys. 110, 7667 (1999)
     Ag, Au : Obtained from the Peterson Research Group Website (tyr0.chem.wsu.edu/~kipeters) Feb. 2017
              K. A. Peterson, C. Puzzarini, Theor. Chem. Acc. 114, 283 (2005)

Your calculation utilizes the basis: cc-pVTZ 
       H, B-Ne : Obtained from the ccRepo (grant-hill.group.shef.ac.uk/ccrepo) Feb. 2017
                 T. H. Dunning, Jr., J. Chem. Phys. 90, 1007 (1989)
            He : Obtained from the ccRepo (grant-hill.group.shef.ac.uk/ccrepo) Feb. 2017
                 D. E. Woon, T. H. Dunning, Jr., J. Chem. Phys. 100, 2975 (1994)
  Li-Be, Na-Mg : Obtained from the ccRepo (grant-hill.group.shef.ac.uk/ccrepo) Feb. 2017
                 B. P. Prascher, D. E. Woon, K. A. Peterson, T. H. Dunning, Jr., A. K. Wilson, Theor. Chem. Acc. 128, 69 (2011)
         Al-Ar : Obtained from the ccRepo (grant-hill.group.shef.ac.uk/ccrepo) Feb. 2017
                 D. E. Woon, T. H. Dunning, Jr., J. Chem. Phys. 98, 1358 (1993)
            Ca : Obtained from the Peterson Research Group Website (tyr0.chem.wsu.edu/~kipeters) Feb. 2017
                 J. Koput, K. A. Peterson, J. Phys. Chem. 106, 9595 (2002)
         Sc-Zn : Obtained from the ccRepo (grant-hill.group.shef.ac.uk/ccrepo) Feb. 2017
                 N. B. Balabanov, K. A. Peterson, J. Chem. Phys. 123, 064107 (2005)
                 N. B. Balabanov, K. A. Peterson, J. Chem. Phys. 125, 074110 (2006)
         Ga-Kr : Obtained from the ccRepo (grant-hill.group.shef.ac.uk/ccrepo) Feb. 2017
                 A. K. Wilson, D. E. Woon, K. A. Peterson, T. H. Dunning, Jr., J. Chem. Phys. 110, 7667 (1999)
             Y : Obtained from the ccRepo (grant-hill.group.shef.ac.uk/ccrepo) Feb. 2017
                 K. A. Peterson, D. Figgen, M. Dolg, H. Stoll, J. Chem. Phys. 126, 124101 (2007)
        Ag, Au : Obtained from the Peterson Research Group Website (tyr0.chem.wsu.edu/~kipeters) Feb. 2017
                 K. A. Peterson, C. Puzzarini, Theor. Chem. Acc. 114, 283 (2005)

----- AuxJ basis set information -----
Your calculation utilizes the auxiliary basis: def2/J
   F. Weigend, Phys. Chem. Chem. Phys. 8, 1057 (2006).

================================================================================
                                        WARNINGS
                       Please study these warnings very carefully!
================================================================================

WARNING: The globally-selected AuxJ basis set is optimized for use with ECPs
         Make sure a suitable alternative is explicitly given all heavy elements (Z>36)

INFO   : the flag for use of the SHARK integral package has been found!

================================================================================
                                       INPUT FILE
================================================================================
NAME = final018.orca.inp
|  1> ! NoMOPrint PrintBasis #MINIPRINT SMALLPRINT LARGEPRINT
|  2> ! ALLPOP XYZFILE
|  3> #! BP86 3-21G   TightSCF
|  4> ! ENGRAD
|  5> ! B3LYP NormalPNO PModel #DecontractAux
|  6> #! VerySlowConv 
|  7>  %maxcore 5000
|  8>  %scf  maxiter   500  end 
|  9> 
| 10> %pal
| 11>     nprocs 32
| 12> end
| 13> 
| 14> %basis
| 15>     NewGTO O    # New basis for oxygen
| 16>         "aug-cc-pVTZ"
| 17>     end
| 18>     NewGTO C    # New basis for carbon
| 19>         "aug-cc-pVTZ"
| 20>     end
| 21>     NewGTO H    # New basis for hydrogen
| 22>         "cc-pVTZ"
| 23>     end
| 24> end
| 25> 
| 26> * xyz 0   1
| 27>   C  10.91  9.79  9.08  #1
| 28>   H  10.21  9.42  8.4  #2
| 29>   H  11.63  9.02  9.37  #3
| 30>   C  10.15  10.44  10.29  #4
| 31>   H  9.5  11.29  9.98  #5
| 32>   H  9.6  9.61  10.76  #6
| 33>   C  11.18  10.94  11.32  #7
| 34>   H  11.45  11.89  11.1  #8
| 35>   H  12.17  10.44  11.26  #9
| 36>   C  10.86  10.9  12.8  #10
| 37>   H  11.08  9.86  13.06  #11
| 38>   H  9.95  11.24  13.1  #12
| 39>   O  11.77  11.71  13.46  #13
| 40>   H  11.5  12.66  13.28  #14
| 41>   O  11.68  10.74  8.32  #15
| 42>   H  11.13  11.55  8.21  #16
| 43>   O  7.49  10.28  13.35  #17
| 44>   H  6.59  9.94  13.6  #18
| 45>   H  7.33  11.05  12.84  #19
| 46>   O  13.06  14.22  11.45  #20
| 47>   H  13.59  13.67  10.83  #21
| 48>   H  13.78  14.64  12.02  #22
| 49>   O  8.4  11.4  15.82  #23
| 50>   H  9.02  12.04  15.56  #24
| 51>   H  8.01  11.05  15  #25
| 52>   O  7.86  12.82  12.16  #26
| 53>   H  7.96  13.47  12.86  #27
| 54>   H  8.45  13.07  11.46  #28
| 55>   O  14.91  9.78  10.29  #29
| 56>   H  15.67  9.22  10.19  #30
| 57>   H  14.61  9.87  9.38  #31
| 58>   O  10.19  13.81  15.64  #32
| 59>   H  10.24  14.6  16.16  #33
| 60>   H  10.96  13.22  15.85  #34
| 61>   O  8.29  15.86  17.41  #35
| 62>   H  8.48  15.07  17.98  #36
| 63>   H  8.74  16.62  17.88  #37
| 64>   O  10.97  13.97  8.07  #38
| 65>   H  10.31  14.26  7.38  #39
| 66>   H  11.4  14.72  8.53  #40
| 67>   O  5.15  9.14  14.57  #41
| 68>   H  4.59  9.83  14.76  #42
| 69>   H  4.89  8.6  15.31  #43
| 70>   O  13.39  13.57  6.58  #44
| 71>   H  13.66  12.68  6.33  #45
| 72>   H  12.49  13.51  7.04  #46
| 73>   O  14.65  14.96  13.53  #47
| 74>   H  14.56  14.3  14.22  #48
| 75>   H  14.63  15.79  13.97  #49
| 76>   O  12.75  16.05  9.34  #50
| 77>   H  13.15  15.38  9.98  #51
| 78>   H  13.37  16.09  8.56  #52
| 79>   O  7.48  15.27  14.27  #53
| 80>   H  7.8  16.12  13.81  #54
| 81>   H  8.24  14.86  14.61  #55
| 82>   O  5.31  12.08  11.4  #56
| 83>   H  4.48  12.31  11.76  #57
| 84>   H  5.84  12.78  11.77  #58
| 85>   O  10.16  16.85  15.12  #59
| 86>   H  9.32  16.63  15.5  #60
| 87>   H  10.32  16.36  14.3  #61
| 88>   O  16.8  11.57  8.91  #62
| 89>   H  17.4  12.17  8.37  #63
| 90>   H  17.37  10.78  9.08  #64
| 91>   O  8.2  12.04  7.24  #65
| 92>   H  8.65  11.67  6.43  #66
| 93>   H  7.77  11.34  7.76  #67
| 94>   O  9.25  7.91  13.15  #68
| 95>   H  8.58  8.65  13.08  #69
| 96>   H  8.81  7.12  13.43  #70
| 97>   O  6.72  9.88  17.25  #71
| 98>   H  7.28  10.59  16.95  #72
| 99>   H  5.9  10.44  17.39  #73
|100>   O  10.64  14.2  12.94  #74
|101>   H  10.72  14.17  13.92  #75
|102>   H  11.41  14.58  12.56  #76
|103>   O  10.47  6.64  10.71  #77
|104>   H  10.26  5.83  10.24  #78
|105>   H  9.74  6.95  11.27  #79
|106>   O  9.26  13.99  10.25  #80
|107>   H  9.85  14.16  11.03  #81
|108>   H  9.88  13.78  9.57  #82
|109>   O  9.12  6.61  7.92  #83
|110>   H  9.32  6.86  8.84  #84
|111>   H  9.78  5.96  7.64  #85
|112>   O  14.61  13.05  9.46  #86
|113>   H  14.03  12.9  8.68  #87
|114>   H  15.09  12.22  9.49  #88
|115>   O  14.52  11.13  12.73  #89
|116>   H  13.65  11.38  13.06  #90
|117>   H  14.41  10.76  11.83  #91
|118>   O  12.42  11.95  16.05  #92
|119>   H  12.34  11.29  15.31  #93
|120>   H  12.53  11.37  16.82  #94
|121>   O  12.24  9.82  5.72  #95
|122>   H  12.38  9.79  6.68  #96
|123>   H  11.38  9.34  5.63  #97
|124>   O  10.65  7.47  15.37  #98
|125>   H  10.28  7.66  14.52  #99
|126>   H  11.37  8.09  15.37  #100
|127>   O  14.8  9.84  7.4  #101
|128>   H  15.37  10.58  7.16  #102
|129>   H  15.12  9.23  6.76  #103
|130>   O  4.67  9.17  11.83  #104
|131>   H  4.69  8.98  12.8  #105
|132>   H  4.81  10.09  11.74  #106
|133>   O  9.9  8.28  5.72  #107
|134>   H  9.64  7.7  6.49  #108
|135>   H  9.77  7.69  4.93  #109
|136>   O  16.71  7.54  10.08  #110
|137>   H  16.76  7.12  11  #111
|138>   H  17.55  7.25  9.68  #112
|139>   Q  0.6645  3.78$  14.38$  10.08$
|140>   Q  0.6645  4.69$  13.48$  9.39$
|141>   Q  -1.3290  4.35$  14.2$  9.54$
|142>   Q  0.6645  7.9$  15.09$  20.2$
|143>   Q  0.6645  8$  16.5$  20.81$
|144>   Q  -1.3290  7.98$  15.64$  20.82$
|145>   Q  0.6645  16.35$  15.38$  12.63$
|146>   Q  0.6645  17.13$  14.16$  11.96$
|147>   Q  -1.3290  17.03$  14.89$  12.42$
|148>   Q  0.6645  8.85$  12.9$  18.55$
|149>   Q  0.6645  7.5$  13.12$  19.02$
|150>   Q  -1.3290  8.26$  13.35$  18.91$
|151>   Q  0.6645  13.92$  12.68$  19.47$
|152>   Q  0.6645  14.95$  11.95$  20.49$
|153>   Q  -1.3290  14.58$  12.16$  19.74$
|154>   Q  0.6645  5.71$  15.07$  13.23$
|155>   Q  0.6645  4.12$  14.75$  13.17$
|156>   Q  -1.3290  4.93$  14.96$  12.87$
|157>   Q  0.6645  3.69$  15.38$  4.5$
|158>   Q  0.6645  4.13$  15.96$  5.83$
|159>   Q  -1.3290  4.25$  15.71$  5.05$
|160>   Q  0.6645  17.75$  9.54$  14.14$
|161>   Q  0.6645  18.93$  10.07$  14.77$
|162>   Q  -1.3290  18.54$  9.61$  14.19$
|163>   Q  0.6645  15.01$  11.52$  4.53$
|164>   Q  0.6645  13.64$  11.01$  5.22$
|165>   Q  -1.3290  14.33$  11.53$  5.03$
|166>   Q  0.6645  19.13$  10.21$  4.26$
|167>   Q  0.6645  20.09$  11.38$  4.01$
|168>   Q  -1.3290  19.81$  10.61$  3.9$
|169>   Q  0.6645  19.51$  6.53$  8.27$
|170>   Q  0.6645  19.06$  5.44$  9.14$
|171>   Q  -1.3290  18.91$  6.13$  8.71$
|172>   Q  0.6645  13.55$  8.94$  18.49$
|173>   Q  0.6645  14.16$  10.48$  18.64$
|174>   Q  -1.3290  13.87$  9.72$  18.26$
|175>   Q  0.6645  16.3$  16.55$  15.73$
|176>   Q  0.6645  14.98$  16.67$  16.4$
|177>   Q  -1.3290  15.54$  16.89$  15.83$
|178>   Q  0.6645  12.06$  20.06$  8.64$
|179>   Q  0.6645  11.53$  20.9$  7.45$
|180>   Q  -1.3290  11.61$  20.2$  7.92$
|181>   Q  0.6645  15.39$  12.49$  16.62$
|182>   Q  0.6645  14.02$  12.8$  16.02$
|183>   Q  -1.3290  14.78$  13.01$  16.31$
|184>   Q  0.6645  9.62$  10.26$  5.36$
|185>   Q  0.6645  10.42$  11.35$  4.65$
|186>   Q  -1.3290  9.71$  10.97$  4.94$
|187>   Q  0.6645  7.35$  9.51$  1.3$
|188>   Q  0.6645  8.48$  8.98$  2.13$
|189>   Q  -1.3290  7.68$  9.06$  1.93$
|190>   Q  0.6645  5.5$  14.58$  18.9$
|191>   Q  0.6645  5.23$  13.74$  20.11$
|192>   Q  -1.3290  5.45$  13.87$  19.31$
|193>   Q  0.6645  11.13$  15.04$  5.51$
|194>   Q  0.6645  12.62$  14.99$  5.7$
|195>   Q  -1.3290  11.93$  15.35$  5.42$
|196>   Q  0.6645  13.55$  16.97$  4.5$
|197>   Q  0.6645  14.21$  17.36$  3.2$
|198>   Q  -1.3290  14.08$  16.88$  3.88$
|199>   Q  0.6645  13.99$  8.75$  21.59$
|200>   Q  0.6645  14.58$  7.6$  20.87$
|201>   Q  -1.3290  14.01$  8.19$  20.97$
|202>   Q  0.6645  9.14$  12.34$  21.12$
|203>   Q  0.6645  10.28$  11.39$  21.76$
|204>   Q  -1.3290  9.96$  12.03$  21.22$
|205>   Q  0.6645  13.94$  6.96$  6.98$
|206>   Q  0.6645  13.36$  8.03$  6.02$
|207>   Q  -1.3290  13.59$  7.25$  6.28$
|208>   Q  0.6645  9.67$  19.31$  10.26$
|209>   Q  0.6645  8.6$  20.23$  10.65$
|210>   Q  -1.3290  9.4$  19.96$  10.68$
|211>   Q  0.6645  6.88$  18.15$  4.71$
|212>   Q  0.6645  5.53$  17.52$  4.3$
|213>   Q  -1.3290  6.03$  18.12$  4.64$
|214>   Q  0.6645  6.64$  16.09$  9.65$
|215>   Q  0.6645  6.01$  15.89$  10.91$
|216>   Q  -1.3290  6.51$  16.27$  10.43$
|217>   Q  0.6645  14.75$  18.65$  6.1$
|218>   Q  0.6645  16.17$  19.3$  6.32$
|219>   Q  -1.3290  15.35$  19.25$  6.01$
|220>   Q  0.6645  15.82$  14.42$  8.68$
|221>   Q  0.6645  16.29$  15.35$  7.52$
|222>   Q  -1.3290  16.16$  15.13$  8.35$
|223>   Q  0.6645  6.24$  12.75$  6.39$
|224>   Q  0.6645  5.21$  13.76$  6.01$
|225>   Q  -1.3290  5.58$  13.23$  6.52$
|226>   Q  0.6645  12.18$  6.38$  10.95$
|227>   Q  0.6645  13.61$  6.15$  10.42$
|228>   Q  -1.3290  13.02$  6.24$  11.03$
|229>   Q  0.6645  7.72$  6.43$  6.97$
|230>   Q  0.6645  6.2$  6.14$  7.09$
|231>   Q  -1.3290  6.93$  6.26$  6.67$
|232>   Q  0.6645  15.05$  5.59$  20.87$
|233>   Q  0.6645  15.4$  6.27$  19.5$
|234>   Q  -1.3290  15.45$  6.13$  20.34$
|235>   Q  0.6645  10.79$  3.97$  12.41$
|236>   Q  0.6645  9.58$  3.72$  11.63$
|237>   Q  -1.3290  10.39$  3.65$  11.79$
|238>   Q  0.6645  5.24$  6.93$  3.19$
|239>   Q  0.6645  6.1$  7.73$  2.06$
|240>   Q  -1.3290  5.47$  7.25$  2.42$
|241>   Q  0.6645  18.83$  14.81$  13.74$
|242>   Q  0.6645  19.17$  13.46$  14.55$
|243>   Q  -1.3290  19.29$  14.3$  14.3$
|244>   Q  0.6645  16.65$  7.55$  17.47$
|245>   Q  0.6645  15.71$  8.66$  17.6$
|246>   Q  -1.3290  16.37$  8.22$  17.83$
|247>   Q  0.6645  3.72$  8.17$  10.38$
|248>   Q  0.6645  2.33$  7.38$  10.08$
|249>   Q  -1.3290  3.18$  7.56$  10.07$
|250>   Q  0.6645  10.63$  11.64$  19.56$
|251>   Q  0.6645  10.82$  10.52$  18.54$
|252>   Q  -1.3290  10.7$  11.3$  18.78$
|253>   Q  0.6645  15.36$  9.79$  13.71$
|254>   Q  0.6645  15.48$  8.33$  14.15$
|255>   Q  -1.3290  15.6$  9.17$  14.22$
|256>   Q  0.6645  5.81$  2.34$  5.95$
|257>   Q  0.6645  4.28$  2.76$  6.04$
|258>   Q  -1.3290  5.13$  2.88$  5.96$
|259>   Q  0.6645  14.68$  17.86$  10.26$
|260>   Q  0.6645  15.57$  17.04$  9.36$
|261>   Q  -1.3290  15.4$  17.65$  9.88$
|262>   Q  0.6645  12.09$  4.21$  8.96$
|263>   Q  0.6645  11.26$  3.91$  10.18$
|264>   Q  -1.3290  11.38$  4.22$  9.41$
|265>   Q  0.6645  8.71$  18.19$  12.79$
|266>   Q  0.6645  7.38$  17.85$  12.35$
|267>   Q  -1.3290  7.96$  17.87$  12.9$
|268>   Q  0.6645  11.12$  9.86$  1.16$
|269>   Q  0.6645  10.29$  8.92$  0.2$
|270>   Q  -1.3290  10.44$  9.43$  0.87$
|271>   Q  0.6645  4.56$  14.53$  16.24$
|272>   Q  0.6645  3.37$  14.61$  15.27$
|273>   Q  -1.3290  3.95$  14.19$  15.75$
|274>   Q  0.6645  16.27$  14.63$  19.21$
|275>   Q  0.6645  15.74$  13.37$  18.68$
|276>   Q  -1.3290  16.34$  13.95$  18.78$
|277>   Q  0.6645  11.96$  15.38$  2.02$
|278>   Q  0.6645  13.12$  15.28$  3$
|279>   Q  -1.3290  12.67$  15.04$  2.33$
|280>   Q  0.6645  2.68$  11.68$  14.84$
|281>   Q  0.6645  2.6$  10.27$  14.3$
|282>   Q  -1.3290  2.88$  10.87$  14.83$
|283>   Q  0.6645  19.63$  12.09$  16.26$
|284>   Q  0.6645  18.13$  11.97$  15.93$
|285>   Q  -1.3290  18.97$  12.04$  15.72$
|286>   Q  0.6645  18.36$  12.25$  6.52$
|287>   Q  0.6645  18.93$  13.58$  7$
|288>   Q  -1.3290  18.51$  12.85$  7.08$
|289>   Q  0.6645  17.3$  12.23$  10.49$
|290>   Q  0.6645  16.35$  12.01$  11.65$
|291>   Q  -1.3290  17.08$  12.31$  11.29$
|292>   Q  0.6645  9.43$  14.9$  0.17$
|293>   Q  0.6645  10.17$  13.71$  0.63$
|294>   Q  -1.3290  9.87$  14.47$  0.71$
|295>   Q  0.6645  17.86$  12.44$  19.11$
|296>   Q  0.6645  19.33$  12.08$  18.92$
|297>   Q  -1.3290  18.52$  11.96$  19.17$
|298>   Q  0.6645  13.04$  9.55$  16.23$
|299>   Q  0.6645  13.79$  9.16$  14.89$
|300>   Q  -1.3290  13.13$  9.28$  15.44$
|301>   Q  0.6645  5.21$  3.86$  13.76$
|302>   Q  0.6645  5.64$  5.12$  13.06$
|303>   Q  -1.3290  5.61$  4.58$  13.7$
|304>   Q  0.6645  4.32$  16.02$  8.36$
|305>   Q  0.6645  5.12$  17.02$  7.55$
|306>   Q  -1.3290  4.43$  16.69$  7.87$
|307>   Q  0.6645  8.74$  20.84$  14.41$
|308>   Q  0.6645  8.01$  19.41$  14.34$
|309>   Q  -1.3290  8.09$  20.26$  14.43$
|310>   Q  0.6645  17.84$  14.88$  15.49$
|311>   Q  0.6645  16.9$  14.58$  16.75$
|312>   Q  -1.3290  17.43$  15.05$  16.24$
|313>   Q  0.6645  16.43$  9.95$  3.29$
|314>   Q  0.6645  16.9$  11.39$  3.65$
|315>   Q  -1.3290  16.37$  10.79$  3.31$
|316>   Q  0.6645  20.43$  12.73$  10.46$
|317>   Q  0.6645  19.96$  11.97$  9.29$
|318>   Q  -1.3290  20.42$  12.53$  9.65$
|319>   Q  0.6645  2.29$  12.67$  19.67$
|320>   Q  0.6645  3.32$  12.1$  18.66$
|321>   Q  -1.3290  2.88$  12.12$  19.36$
|322>   Q  0.6645  1.93$  7.75$  13.44$
|323>   Q  0.6645  0.87$  8.83$  13.2$
|324>   Q  -1.3290  1.38$  8.35$  13.69$
|325>   Q  0.6645  15.44$  6.23$  13.02$
|326>   Q  0.6645  14.1$  6.96$  12.79$
|327>   Q  -1.3290  14.82$  6.8$  13.2$
|328>   Q  0.6645  10.91$  6.25$  3.24$
|329>   Q  0.6645  9.91$  5.28$  2.91$
|330>   Q  -1.3290  10.22$  5.84$  3.41$
|331>   Q  0.6645  10.79$  1.26$  11.82$
|332>   Q  0.6645  10.62$  -0.05$  11.22$
|333>   Q  -1.3290  11.01$  0.47$  11.73$
|334>   Q  0.6645  8.29$  2$  8.66$
|335>   Q  0.6645  6.85$  2.29$  9.14$
|336>   Q  -1.3290  7.52$  1.78$  8.98$
|337>   Q  0.6645  10.36$  2.67$  3.19$
|338>   Q  0.6645  10.52$  2.61$  1.64$
|339>   Q  -1.3290  10.75$  2.56$  2.46$
|340>   Q  0.6645  4.42$  2.68$  12.11$
|341>   Q  0.6645  4.96$  1.88$  13.4$
|342>   Q  -1.3290  4.46$  2.4$  12.92$
|343>   Q  0.6645  1.76$  8.33$  5.56$
|344>   Q  0.6645  1.09$  7.2$  5$
|345>   Q  -1.3290  1.53$  7.57$  5.58$
|346>   Q  0.6645  13.33$  16.86$  17.84$
|347>   Q  0.6645  13.91$  15.44$  18.29$
|348>   Q  -1.3290  13.9$  16.3$  18.2$
|349>   Q  0.6645  8.82$  1.84$  5.15$
|350>   Q  0.6645  10.25$  1.34$  5.47$
|351>   Q  -1.3290  9.5$  1.4$  5.03$
|352>   Q  0.6645  15.19$  14.54$  5.75$
|353>   Q  0.6645  15.71$  15.92$  5.17$
|354>   Q  -1.3290  15.75$  15.19$  5.59$
|355>   Q  0.6645  11.34$  7.81$  18.05$
|356>   Q  0.6645  12.12$  6.48$  18.04$
|357>   Q  -1.3290  12.04$  7.32$  18.05$
|358>   Q  0.6645  6.47$  18.15$  10.37$
|359>   Q  0.6645  6.69$  19.4$  9.51$
|360>   Q  -1.3290  6.52$  18.98$  10.24$
|361>   Q  0.6645  9.25$  18.55$  4.33$
|362>   Q  0.6645  9.26$  16.98$  4.04$
|363>   Q  -1.3290  8.97$  17.75$  4.39$
|364>   Q  0.6645  6.3$  15.94$  17.25$
|365>   Q  0.6645  4.94$  16.56$  17.65$
|366>   Q  -1.3290  5.47$  15.96$  17.43$
|367>   Q  0.6645  12.12$  18.93$  16.4$
|368>   Q  0.6645  11.94$  19.59$  17.74$
|369>   Q  -1.3290  12$  18.94$  17.23$
|370>   Q  0.6645  7.69$  3.33$  17.99$
|371>   Q  0.6645  7.28$  2.06$  17.37$
|372>   Q  -1.3290  7.83$  2.58$  17.69$
|373>   Q  0.6645  10.12$  18.93$  7.23$
|374>   Q  0.6645  9.12$  18.22$  6.24$
|375>   Q  -1.3290  9.41$  18.54$  7$
|376>   Q  0.6645  8.37$  11.57$  3.41$
|377>   Q  0.6645  7.81$  12.61$  2.44$
|378>   Q  -1.3290  8.01$  11.83$  2.71$
|379>   Q  0.6645  3.9$  3.13$  9.81$
|380>   Q  0.6645  2.39$  2.92$  10.17$
|381>   Q  -1.3290  3.19$  3.16$  10.31$
|382>   Q  0.6645  16.85$  5.38$  16.49$
|383>   Q  0.6645  17.8$  6.07$  15.55$
|384>   Q  -1.3290  17.44$  5.91$  16.27$
|385>   Q  0.6645  17.27$  9.88$  5.67$
|386>   Q  0.6645  18.57$  10.09$  6.45$
|387>   Q  -1.3290  18.01$  10.24$  5.84$
|388>   Q  0.6645  9.32$  8.37$  17.15$
|389>   Q  0.6645  9.18$  8.92$  18.61$
|390>   Q  -1.3290  9.56$  8.53$  17.97$
|391>   Q  0.6645  17.57$  7.98$  1.94$
|392>   Q  0.6645  17.01$  8.61$  0.68$
|393>   Q  -1.3290  17$  8.4$  1.51$
|394>   Q  0.6645  10.28$  4.54$  0.49$
|395>   Q  0.6645  9.82$  5.96$  0.08$
|396>   Q  -1.3290  9.94$  5.31$  0.58$
|397>   Q  0.6645  6.01$  8.72$  10.81$
|398>   Q  0.6645  6.3$  8.81$  9.39$
|399>   Q  -1.3290  6.23$  8.39$  10.09$
|400>   Q  0.6645  12.69$  12.57$  4.37$
|401>   Q  0.6645  11.77$  13.35$  3.28$
|402>   Q  -1.3290  12.02$  12.71$  3.85$
|403>   Q  0.6645  7.92$  4.59$  5.89$
|404>   Q  0.6645  8.02$  3.75$  4.59$
|405>   Q  -1.3290  8.24$  3.99$  5.38$
|406>   Q  0.6645  15.79$  19.01$  15.72$
|407>   Q  0.6645  16$  20.54$  15.42$
|408>   Q  -1.3290  16.04$  19.79$  15.86$
|409>   Q  0.6645  14.18$  14.79$  1.14$
|410>   Q  0.6645  15.11$  15.29$  -0.05$
|411>   Q  -1.3290  14.91$  14.83$  0.65$
|412>   Q  0.6645  15.99$  7.86$  5.41$
|413>   Q  0.6645  14.94$  8.69$  4.51$
|414>   Q  -1.3290  15.62$  8.58$  5.06$
|415>   Q  0.6645  11.07$  19.8$  14.26$
|416>   Q  0.6645  11.22$  18.42$  14.83$
|417>   Q  -1.3290  11.51$  19.15$  14.53$
|418>   Q  0.6645  13.31$  6.77$  16.2$
|419>   Q  0.6645  13.88$  6.43$  14.82$
|420>   Q  -1.3290  13.75$  6.32$  15.63$
|421>   Q  0.6645  15.47$  16.7$  19.5$
|422>   Q  0.6645  16.62$  16.73$  20.49$
|423>   Q  -1.3290  15.9$  16.47$  20.19$
|424>   Q  0.6645  5.78$  10.92$  9.84$
|425>   Q  0.6645  5.25$  10.91$  8.38$
|426>   Q  -1.3290  5.8$  10.73$  9$
|427>   Q  0.6645  16.66$  4.87$  2.46$
|428>   Q  0.6645  16.88$  5.36$  3.92$
|429>   Q  -1.3290  16.49$  4.96$  3.27$
|430>   Q  0.6645  19.02$  12.83$  12.21$
|431>   Q  0.6645  20.15$  13.88$  12.22$
|432>   Q  -1.3290  19.82$  13.11$  12.18$
|433>   Q  0.6645  2.82$  16.43$  13.95$
|434>   Q  0.6645  1.55$  15.6$  14.4$
|435>   Q  -1.3290  2.38$  15.71$  14.16$
|436>   Q  0.6645  10.39$  17.14$  11.28$
|437>   Q  0.6645  11.73$  17$  12.04$
|438>   Q  -1.3290  10.87$  16.95$  11.93$
|439>   Q  0.6645  11.32$  15.51$  21.26$
|440>   Q  0.6645  12.31$  16.3$  20.33$
|441>   Q  -1.3290  12.07$  15.69$  20.86$
|442>   Q  0.6645  16.55$  8.89$  20.08$
|443>   Q  0.6645  17.51$  10.17$  20.03$
|444>   Q  -1.3290  17.12$  9.46$  20.36$
|445>   Q  0.6645  0.43$  11.64$  9.21$
|446>   Q  0.6645  1.76$  11.42$  8.56$
|447>   Q  -1.3290  1.23$  11.44$  9.21$
|448>   Q  0.6645  8.04$  15.1$  3.32$
|449>   Q  0.6645  9.25$  15.07$  2.39$
|450>   Q  -1.3290  8.83$  15.24$  3.1$
|451>   Q  0.6645  4.92$  6.63$  5.34$
|452>   Q  0.6645  3.48$  6.94$  5.2$
|453>   Q  -1.3290  4.24$  6.74$  4.91$
|454>   Q  0.6645  17.3$  11.28$  17.66$
|455>   Q  0.6645  16.54$  10.53$  16.48$
|456>   Q  -1.3290  16.79$  11.2$  16.97$
|457>   Q  0.6645  14.65$  5.41$  8.28$
|458>   Q  0.6645  15.21$  6.56$  9.05$
|459>   Q  -1.3290  14.63$  6.17$  8.58$
|460>   Q  0.6645  7.81$  11.21$  0.94$
|461>   Q  0.6645  7.86$  10.54$  -0.58$
|462>   Q  -1.3290  7.6$  11.08$  0.09$
|463>   Q  0.6645  10.9$  1.52$  7.14$
|464>   Q  0.6645  12.25$  1.39$  6.31$
|465>   Q  -1.3290  11.5$  1.15$  6.67$
|466>   Q  0.6645  4.08$  12.32$  7.5$
|467>   Q  0.6645  3.49$  11.06$  6.98$
|468>   Q  -1.3290  3.65$  11.62$  7.58$
|469>   Q  0.6645  5.68$  4.55$  8.81$
|470>   Q  0.6645  5.39$  3.38$  7.83$
|471>   Q  -1.3290  5.48$  3.74$  8.58$
|472>   Q  0.6645  8.05$  6.08$  15.09$
|473>   Q  0.6645  7.71$  5.02$  14.12$
|474>   Q  -1.3290  8.19$  5.6$  14.45$
|475>   Q  0.6645  3.67$  8.8$  2.49$
|476>   Q  0.6645  3.09$  8.95$  1.06$
|477>   Q  -1.3290  3.03$  8.89$  1.9$
|478>   Q  0.6645  18.52$  13.75$  3.67$
|479>   Q  0.6645  17.14$  13.91$  4.29$
|480>   Q  -1.3290  17.75$  13.49$  3.89$
|481>   Q  0.6645  11.97$  6.09$  6.31$
|482>   Q  0.6645  11$  5.56$  5.29$
|483>   Q  -1.3290  11.36$  5.58$  6.03$
|484>   Q  0.6645  5.53$  14.9$  3.61$
|485>   Q  0.6645  5.92$  13.45$  3.35$
|486>   Q  -1.3290  6.03$  14.28$  3.39$
|487>   Q  0.6645  11.01$  5.22$  14.63$
|488>   Q  0.6645  12.06$  4.22$  14.24$
|489>   Q  -1.3290  11.3$  4.45$  14.48$
|490>   Q  0.6645  19.28$  16.96$  13.32$
|491>   Q  0.6645  19.34$  17.61$  14.73$
|492>   Q  -1.3290  19.05$  17.5$  13.96$
|493>   Q  0.6645  12.68$  18.41$  13.38$
|494>   Q  0.6645  14.22$  17.97$  13.04$
|495>   Q  -1.3290  13.35$  18.01$  12.95$
|496>   Q  0.6645  3.94$  10.9$  4.59$
|497>   Q  0.6645  4.63$  9.8$  5.3$
|498>   Q  -1.3290  4.01$  10.3$  5.15$
|499>   Q  0.6645  13.08$  0.84$  11.14$
|500>   Q  0.6645  14.62$  1$  10.97$
|501>   Q  -1.3290  13.81$  1.26$  11.04$
|502>   Q  0.6645  14.87$  4.73$  16.51$
|503>   Q  0.6645  15.72$  3.57$  15.8$
|504>   Q  -1.3290  15.5$  4.12$  16.44$
|505>   Q  0.6645  8.14$  18.69$  18.17$
|506>   Q  0.6645  6.85$  18.23$  18.61$
|507>   Q  -1.3290  7.36$  18.79$  18.29$
|508>   Q  0.6645  15.27$  1.62$  14.63$
|509>   Q  0.6645  14.75$  3.02$  14.14$
|510>   Q  -1.3290  15.33$  2.43$  14.41$
|511>   Q  0.6645  8.52$  16.76$  9.9$
|512>   Q  0.6645  9.16$  17.53$  8.67$
|513>   Q  -1.3290  9.12$  17.21$  9.48$
|514>   Q  0.6645  10.11$  3.53$  8.19$
|515>   Q  0.6645  9.2$  3.02$  7.01$
|516>   Q  -1.3290  9.61$  3.02$  7.75$
|517>   Q  0.6645  4.3$  6.61$  8.57$
|518>   Q  0.6645  4.09$  5.34$  7.75$
|519>   Q  -1.3290  4.5$  6.01$  7.99$
|520>   Q  0.6645  7.46$  1.97$  2.91$
|521>   Q  0.6645  6.65$  3.33$  2.74$
|522>   Q  -1.3290  7.35$  2.81$  2.82$
|523>   Q  0.6645  19.67$  9.67$  8.55$
|524>   Q  0.6645  19.37$  9.52$  10.07$
|525>   Q  -1.3290  19.35$  9.9$  9.3$
|526>   Q  0.6645  6.23$  14.47$  8.02$
|527>   Q  0.6645  7.78$  14.32$  8.46$
|528>   Q  -1.3290  7.03$  14.74$  8.27$
|529>   Q  0.6645  18.06$  4.6$  7.52$
|530>   Q  0.6645  17.75$  3.26$  6.94$
|531>   Q  -1.3290  17.9$  4.08$  6.92$
|532>   Q  0.6645  19.07$  14.41$  9.21$
|533>   Q  0.6645  17.99$  15.41$  9.31$
|534>   Q  -1.3290  18.76$  15.13$  9.44$
|535>   Q  0.6645  18.29$  6.99$  5.51$
|536>   Q  0.6645  17.5$  5.84$  6.08$
|537>   Q  -1.3290  17.61$  6.53$  5.6$
|538>   Q  0.6645  12.72$  7.57$  1.79$
|539>   Q  0.6645  11.38$  7.19$  1.28$
|540>   Q  -1.3290  12.03$  7.1$  1.77$
|541>   Q  0.6645  12.2$  14.08$  19.66$
|542>   Q  0.6645  11.89$  13$  18.55$
|543>   Q  -1.3290  12.36$  13.55$  18.98$
|544>   Q  0.6645  4.84$  11.69$  1.97$
|545>   Q  0.6645  5.98$  11.28$  2.78$
|546>   Q  -1.3290  5.27$  11.69$  2.65$
|547>   Q  0.6645  10.4$  5.42$  16.94$
|548>   Q  0.6645  10.71$  4.25$  17.81$
|549>   Q  -1.3290  10.6$  5.06$  17.66$
|550>   Q  0.6645  18.54$  15.82$  17.69$
|551>   Q  0.6645  20.01$  16.47$  17.6$
|552>   Q  -1.3290  19.31$  16.11$  17.98$
|553>   Q  0.6645  7.6$  7.05$  17.51$
|554>   Q  0.6645  7.03$  8.17$  16.62$
|555>   Q  -1.3290  7.29$  7.37$  16.78$
|556>   Q  0.6645  6.32$  5.87$  1.22$
|557>   Q  0.6645  7.88$  5.46$  1.02$
|558>   Q  -1.3290  7.03$  5.55$  0.84$
|559>   Q  0.6645  15.1$  8.63$  2.02$
|560>   Q  0.6645  13.88$  9.64$  2.02$
|561>   Q  -1.3290  14.29$  8.89$  2.21$
|562>   Q  0.6645  13.77$  3.34$  7.46$
|563>   Q  0.6645  14.03$  2.57$  8.74$
|564>   Q  -1.3290  13.94$  3.25$  8.26$
|565>   Q  0.6645  0.68$  10.89$  11.21$
|566>   Q  0.6645  0.45$  11.27$  12.62$
|567>   Q  -1.3290  0.62$  10.72$  11.99$
|568>   Q  0.6645  4.47$  12.12$  16.58$
|569>   Q  0.6645  5.24$  12.62$  17.81$
|570>   Q  -1.3290  4.88$  12.06$  17.31$
|571>   Q  0.6645  2.15$  12.81$  10.14$
|572>   Q  0.6645  1.89$  14.1$  10.95$
|573>   Q  -1.3290  2.33$  13.42$  10.72$
|574>   Q  0.6645  3.51$  7.26$  12.63$
|575>   Q  0.6645  3.08$  5.87$  13.04$
|576>   Q  -1.3290  3.45$  6.61$  13.15$
|577>   Q  0.6645  13.44$  11.5$  1.13$
|578>   Q  0.6645  12.44$  11.55$  2.22$
|579>   Q  -1.3290  12.8$  11.22$  1.57$
|580>   Q  0.6645  6.59$  8.27$  5.54$
|581>   Q  0.6645  6.91$  8.82$  4.16$
|582>   Q  -1.3290  6.56$  8.84$  4.91$
|583>   Q  0.6645  12.83$  4.95$  2.31$
|584>   Q  0.6645  14.28$  4.93$  2.72$
|585>   Q  -1.3290  13.55$  4.58$  2.48$
|586>   Q  0.6645  6.98$  4.1$  11.03$
|587>   Q  0.6645  7.73$  2.83$  10.92$
|588>   Q  -1.3290  7.65$  3.64$  11.12$
|589>   Q  0.6645  9.06$  14.53$  4.98$
|590>   Q  0.6645  8.48$  14.24$  6.28$
|591>   Q  -1.3290  9.12$  14.45$  5.77$
|592>   Q  0.6645  10.96$  16.95$  2.9$
|593>   Q  0.6645  11.97$  17.57$  1.87$
|594>   Q  -1.3290  11.19$  17.34$  2.16$
|595>   Q  0.6645  11.95$  7.69$  20.48$
|596>   Q  0.6645  10.46$  7.3$  20.14$
|597>   Q  -1.3290  11.1$  7.67$  20.59$
|598>   Q  0.6645  15.66$  11.79$  1.36$
|599>   Q  0.6645  15.02$  13.06$  0.53$
|600>   Q  -1.3290  15.19$  12.21$  0.75$
|601>   Q  0.6645  5.55$  6.88$  16.46$
|602>   Q  0.6645  4.55$  6.52$  15.33$
|603>   Q  -1.3290  4.79$  6.86$  16.06$
|604>   Q  0.6645  19.59$  6.27$  14.64$
|605>   Q  0.6645  19$  7.74$  14.16$
|606>   Q  -1.3290  19.02$  6.89$  14.37$
|607>   Q  0.6645  13.41$  3.47$  4.97$
|608>   Q  0.6645  12.36$  4.01$  5.91$
|609>   Q  -1.3290  12.94$  3.47$  5.65$
|610>   Q  0.6645  8.5$  5.38$  20.15$
|611>   Q  0.6645  9.56$  5.74$  19.15$
|612>   Q  -1.3290  8.94$  5.92$  19.74$
|613>   Q  0.6645  5.72$  6.38$  10.7$
|614>   Q  0.6645  4.61$  5.32$  10.74$
|615>   Q  -1.3290  5.38$  5.6$  10.88$
|616>   Q  0.6645  7.33$  8.55$  20.02$
|617>   Q  0.6645  7.43$  9.57$  18.94$
|618>   Q  -1.3290  7.67$  9.17$  19.65$
|619>   Q  0.6645  17.06$  18.05$  13.25$
|620>   Q  0.6645  16.3$  18.09$  11.87$
|621>   Q  -1.3290  16.45$  18.26$  12.7$
|622>   Q  0.6645  9.76$  2.24$  16.91$
|623>   Q  0.6645  10.61$  2.89$  15.75$
|624>   Q  -1.3290  10.45$  2.39$  16.43$
|625>   Q  0.6645  9.89$  18.18$  19.36$
|626>   Q  0.6645  10.62$  18.08$  18$
|627>   Q  -1.3290  10.01$  17.9$  18.55$
|628>   Q  0.6645  12.97$  18.78$  11.26$
|629>   Q  0.6645  12.49$  17.94$  10.07$
|630>   Q  -1.3290  12.73$  18.66$  10.45$
|631>   Q  0.6645  19.98$  8.38$  12.46$
|632>   Q  0.6645  20.82$  9.27$  11.61$
|633>   Q  -1.3290  20.33$  8.62$  11.75$
|634>   Q  0.6645  13.48$  2.66$  12.44$
|635>   Q  0.6645  13.37$  4.18$  12.1$
|636>   Q  -1.3290  13.39$  3.5$  12.62$
|637>   Q  0.6645  12.56$  17.34$  6.39$
|638>   Q  0.6645  12.81$  18.7$  6.92$
|639>   Q  -1.3290  13.02$  17.95$  6.65$
|640>   Q  0.6645  17.04$  4.37$  12.41$
|641>   Q  0.6645  17.61$  5.6$  13.12$
|642>   Q  -1.3290  17.1$  5.22$  12.57$
|643> *
|644> 
|645>                          ****END OF INPUT****
================================================================================

                     *******************************
                     * Energy+Gradient Calculation *
                     *******************************

---------------------------------
CARTESIAN COORDINATES (ANGSTROEM)
---------------------------------
  C     10.910000    9.790000    9.080000
  H     10.210000    9.420000    8.400000
  H     11.630000    9.020000    9.370000
  C     10.150000   10.440000   10.290000
  H      9.500000   11.290000    9.980000
  H      9.600000    9.610000   10.760000
  C     11.180000   10.940000   11.320000
  H     11.450000   11.890000   11.100000
  H     12.170000   10.440000   11.260000
  C     10.860000   10.900000   12.800000
  H     11.080000    9.860000   13.060000
  H      9.950000   11.240000   13.100000
  O     11.770000   11.710000   13.460000
  H     11.500000   12.660000   13.280000
  O     11.680000   10.740000    8.320000
  H     11.130000   11.550000    8.210000
  O      7.490000   10.280000   13.350000
  H      6.590000    9.940000   13.600000
  H      7.330000   11.050000   12.840000
  O     13.060000   14.220000   11.450000
  H     13.590000   13.670000   10.830000
  H     13.780000   14.640000   12.020000
  O      8.400000   11.400000   15.820000
  H      9.020000   12.040000   15.560000
  H      8.010000   11.050000   15.000000
  O      7.860000   12.820000   12.160000
  H      7.960000   13.470000   12.860000
  H      8.450000   13.070000   11.460000
  O     14.910000    9.780000   10.290000
  H     15.670000    9.220000   10.190000
  H     14.610000    9.870000    9.380000
  O     10.190000   13.810000   15.640000
  H     10.240000   14.600000   16.160000
  H     10.960000   13.220000   15.850000
  O      8.290000   15.860000   17.410000
  H      8.480000   15.070000   17.980000
  H      8.740000   16.620000   17.880000
  O     10.970000   13.970000    8.070000
  H     10.310000   14.260000    7.380000
  H     11.400000   14.720000    8.530000
  O      5.150000    9.140000   14.570000
  H      4.590000    9.830000   14.760000
  H      4.890000    8.600000   15.310000
  O     13.390000   13.570000    6.580000
  H     13.660000   12.680000    6.330000
  H     12.490000   13.510000    7.040000
  O     14.650000   14.960000   13.530000
  H     14.560000   14.300000   14.220000
  H     14.630000   15.790000   13.970000
  O     12.750000   16.050000    9.340000
  H     13.150000   15.380000    9.980000
  H     13.370000   16.090000    8.560000
  O      7.480000   15.270000   14.270000
  H      7.800000   16.120000   13.810000
  H      8.240000   14.860000   14.610000
  O      5.310000   12.080000   11.400000
  H      4.480000   12.310000   11.760000
  H      5.840000   12.780000   11.770000
  O     10.160000   16.850000   15.120000
  H      9.320000   16.630000   15.500000
  H     10.320000   16.360000   14.300000
  O     16.800000   11.570000    8.910000
  H     17.400000   12.170000    8.370000
  H     17.370000   10.780000    9.080000
  O      8.200000   12.040000    7.240000
  H      8.650000   11.670000    6.430000
  H      7.770000   11.340000    7.760000
  O      9.250000    7.910000   13.150000
  H      8.580000    8.650000   13.080000
  H      8.810000    7.120000   13.430000
  O      6.720000    9.880000   17.250000
  H      7.280000   10.590000   16.950000
  H      5.900000   10.440000   17.390000
  O     10.640000   14.200000   12.940000
  H     10.720000   14.170000   13.920000
  H     11.410000   14.580000   12.560000
  O     10.470000    6.640000   10.710000
  H     10.260000    5.830000   10.240000
  H      9.740000    6.950000   11.270000
  O      9.260000   13.990000   10.250000
  H      9.850000   14.160000   11.030000
  H      9.880000   13.780000    9.570000
  O      9.120000    6.610000    7.920000
  H      9.320000    6.860000    8.840000
  H      9.780000    5.960000    7.640000
  O     14.610000   13.050000    9.460000
  H     14.030000   12.900000    8.680000
  H     15.090000   12.220000    9.490000
  O     14.520000   11.130000   12.730000
  H     13.650000   11.380000   13.060000
  H     14.410000   10.760000   11.830000
  O     12.420000   11.950000   16.050000
  H     12.340000   11.290000   15.310000
  H     12.530000   11.370000   16.820000
  O     12.240000    9.820000    5.720000
  H     12.380000    9.790000    6.680000
  H     11.380000    9.340000    5.630000
  O     10.650000    7.470000   15.370000
  H     10.280000    7.660000   14.520000
  H     11.370000    8.090000   15.370000
  O     14.800000    9.840000    7.400000
  H     15.370000   10.580000    7.160000
  H     15.120000    9.230000    6.760000
  O      4.670000    9.170000   11.830000
  H      4.690000    8.980000   12.800000
  H      4.810000   10.090000   11.740000
  O      9.900000    8.280000    5.720000
  H      9.640000    7.700000    6.490000
  H      9.770000    7.690000    4.930000
  O     16.710000    7.540000   10.080000
  H     16.760000    7.120000   11.000000
  H     17.550000    7.250000    9.680000
  Q      3.780000   14.380000   10.080000
  Q      4.690000   13.480000    9.390000
  Q      4.350000   14.200000    9.540000
  Q      7.900000   15.090000   20.200000
  Q      8.000000   16.500000   20.810000
  Q      7.980000   15.640000   20.820000
  Q     16.350000   15.380000   12.630000
  Q     17.130000   14.160000   11.960000
  Q     17.030000   14.890000   12.420000
  Q      8.850000   12.900000   18.550000
  Q      7.500000   13.120000   19.020000
  Q      8.260000   13.350000   18.910000
  Q     13.920000   12.680000   19.470000
  Q     14.950000   11.950000   20.490000
  Q     14.580000   12.160000   19.740000
  Q      5.710000   15.070000   13.230000
  Q      4.120000   14.750000   13.170000
  Q      4.930000   14.960000   12.870000
  Q      3.690000   15.380000    4.500000
  Q      4.130000   15.960000    5.830000
  Q      4.250000   15.710000    5.050000
  Q     17.750000    9.540000   14.140000
  Q     18.930000   10.070000   14.770000
  Q     18.540000    9.610000   14.190000
  Q     15.010000   11.520000    4.530000
  Q     13.640000   11.010000    5.220000
  Q     14.330000   11.530000    5.030000
  Q     19.130000   10.210000    4.260000
  Q     20.090000   11.380000    4.010000
  Q     19.810000   10.610000    3.900000
  Q     19.510000    6.530000    8.270000
  Q     19.060000    5.440000    9.140000
  Q     18.910000    6.130000    8.710000
  Q     13.550000    8.940000   18.490000
  Q     14.160000   10.480000   18.640000
  Q     13.870000    9.720000   18.260000
  Q     16.300000   16.550000   15.730000
  Q     14.980000   16.670000   16.400000
  Q     15.540000   16.890000   15.830000
  Q     12.060000   20.060000    8.640000
  Q     11.530000   20.900000    7.450000
  Q     11.610000   20.200000    7.920000
  Q     15.390000   12.490000   16.620000
  Q     14.020000   12.800000   16.020000
  Q     14.780000   13.010000   16.310000
  Q      9.620000   10.260000    5.360000
  Q     10.420000   11.350000    4.650000
  Q      9.710000   10.970000    4.940000
  Q      7.350000    9.510000    1.300000
  Q      8.480000    8.980000    2.130000
  Q      7.680000    9.060000    1.930000
  Q      5.500000   14.580000   18.900000
  Q      5.230000   13.740000   20.110000
  Q      5.450000   13.870000   19.310000
  Q     11.130000   15.040000    5.510000
  Q     12.620000   14.990000    5.700000
  Q     11.930000   15.350000    5.420000
  Q     13.550000   16.970000    4.500000
  Q     14.210000   17.360000    3.200000
  Q     14.080000   16.880000    3.880000
  Q     13.990000    8.750000   21.590000
  Q     14.580000    7.600000   20.870000
  Q     14.010000    8.190000   20.970000
  Q      9.140000   12.340000   21.120000
  Q     10.280000   11.390000   21.760000
  Q      9.960000   12.030000   21.220000
  Q     13.940000    6.960000    6.980000
  Q     13.360000    8.030000    6.020000
  Q     13.590000    7.250000    6.280000
  Q      9.670000   19.310000   10.260000
  Q      8.600000   20.230000   10.650000
  Q      9.400000   19.960000   10.680000
  Q      6.880000   18.150000    4.710000
  Q      5.530000   17.520000    4.300000
  Q      6.030000   18.120000    4.640000
  Q      6.640000   16.090000    9.650000
  Q      6.010000   15.890000   10.910000
  Q      6.510000   16.270000   10.430000
  Q     14.750000   18.650000    6.100000
  Q     16.170000   19.300000    6.320000
  Q     15.350000   19.250000    6.010000
  Q     15.820000   14.420000    8.680000
  Q     16.290000   15.350000    7.520000
  Q     16.160000   15.130000    8.350000
  Q      6.240000   12.750000    6.390000
  Q      5.210000   13.760000    6.010000
  Q      5.580000   13.230000    6.520000
  Q     12.180000    6.380000   10.950000
  Q     13.610000    6.150000   10.420000
  Q     13.020000    6.240000   11.030000
  Q      7.720000    6.430000    6.970000
  Q      6.200000    6.140000    7.090000
  Q      6.930000    6.260000    6.670000
  Q     15.050000    5.590000   20.870000
  Q     15.400000    6.270000   19.500000
  Q     15.450000    6.130000   20.340000
  Q     10.790000    3.970000   12.410000
  Q      9.580000    3.720000   11.630000
  Q     10.390000    3.650000   11.790000
  Q      5.240000    6.930000    3.190000
  Q      6.100000    7.730000    2.060000
  Q      5.470000    7.250000    2.420000
  Q     18.830000   14.810000   13.740000
  Q     19.170000   13.460000   14.550000
  Q     19.290000   14.300000   14.300000
  Q     16.650000    7.550000   17.470000
  Q     15.710000    8.660000   17.600000
  Q     16.370000    8.220000   17.830000
  Q      3.720000    8.170000   10.380000
  Q      2.330000    7.380000   10.080000
  Q      3.180000    7.560000   10.070000
  Q     10.630000   11.640000   19.560000
  Q     10.820000   10.520000   18.540000
  Q     10.700000   11.300000   18.780000
  Q     15.360000    9.790000   13.710000
  Q     15.480000    8.330000   14.150000
  Q     15.600000    9.170000   14.220000
  Q      5.810000    2.340000    5.950000
  Q      4.280000    2.760000    6.040000
  Q      5.130000    2.880000    5.960000
  Q     14.680000   17.860000   10.260000
  Q     15.570000   17.040000    9.360000
  Q     15.400000   17.650000    9.880000
  Q     12.090000    4.210000    8.960000
  Q     11.260000    3.910000   10.180000
  Q     11.380000    4.220000    9.410000
  Q      8.710000   18.190000   12.790000
  Q      7.380000   17.850000   12.350000
  Q      7.960000   17.870000   12.900000
  Q     11.120000    9.860000    1.160000
  Q     10.290000    8.920000    0.200000
  Q     10.440000    9.430000    0.870000
  Q      4.560000   14.530000   16.240000
  Q      3.370000   14.610000   15.270000
  Q      3.950000   14.190000   15.750000
  Q     16.270000   14.630000   19.210000
  Q     15.740000   13.370000   18.680000
  Q     16.340000   13.950000   18.780000
  Q     11.960000   15.380000    2.020000
  Q     13.120000   15.280000    3.000000
  Q     12.670000   15.040000    2.330000
  Q      2.680000   11.680000   14.840000
  Q      2.600000   10.270000   14.300000
  Q      2.880000   10.870000   14.830000
  Q     19.630000   12.090000   16.260000
  Q     18.130000   11.970000   15.930000
  Q     18.970000   12.040000   15.720000
  Q     18.360000   12.250000    6.520000
  Q     18.930000   13.580000    7.000000
  Q     18.510000   12.850000    7.080000
  Q     17.300000   12.230000   10.490000
  Q     16.350000   12.010000   11.650000
  Q     17.080000   12.310000   11.290000
  Q      9.430000   14.900000    0.170000
  Q     10.170000   13.710000    0.630000
  Q      9.870000   14.470000    0.710000
  Q     17.860000   12.440000   19.110000
  Q     19.330000   12.080000   18.920000
  Q     18.520000   11.960000   19.170000
  Q     13.040000    9.550000   16.230000
  Q     13.790000    9.160000   14.890000
  Q     13.130000    9.280000   15.440000
  Q      5.210000    3.860000   13.760000
  Q      5.640000    5.120000   13.060000
  Q      5.610000    4.580000   13.700000
  Q      4.320000   16.020000    8.360000
  Q      5.120000   17.020000    7.550000
  Q      4.430000   16.690000    7.870000
  Q      8.740000   20.840000   14.410000
  Q      8.010000   19.410000   14.340000
  Q      8.090000   20.260000   14.430000
  Q     17.840000   14.880000   15.490000
  Q     16.900000   14.580000   16.750000
  Q     17.430000   15.050000   16.240000
  Q     16.430000    9.950000    3.290000
  Q     16.900000   11.390000    3.650000
  Q     16.370000   10.790000    3.310000
  Q     20.430000   12.730000   10.460000
  Q     19.960000   11.970000    9.290000
  Q     20.420000   12.530000    9.650000
  Q      2.290000   12.670000   19.670000
  Q      3.320000   12.100000   18.660000
  Q      2.880000   12.120000   19.360000
  Q      1.930000    7.750000   13.440000
  Q      0.870000    8.830000   13.200000
  Q      1.380000    8.350000   13.690000
  Q     15.440000    6.230000   13.020000
  Q     14.100000    6.960000   12.790000
  Q     14.820000    6.800000   13.200000
  Q     10.910000    6.250000    3.240000
  Q      9.910000    5.280000    2.910000
  Q     10.220000    5.840000    3.410000
  Q     10.790000    1.260000   11.820000
  Q     10.620000   -0.050000   11.220000
  Q     11.010000    0.470000   11.730000
  Q      8.290000    2.000000    8.660000
  Q      6.850000    2.290000    9.140000
  Q      7.520000    1.780000    8.980000
  Q     10.360000    2.670000    3.190000
  Q     10.520000    2.610000    1.640000
  Q     10.750000    2.560000    2.460000
  Q      4.420000    2.680000   12.110000
  Q      4.960000    1.880000   13.400000
  Q      4.460000    2.400000   12.920000
  Q      1.760000    8.330000    5.560000
  Q      1.090000    7.200000    5.000000
  Q      1.530000    7.570000    5.580000
  Q     13.330000   16.860000   17.840000
  Q     13.910000   15.440000   18.290000
  Q     13.900000   16.300000   18.200000
  Q      8.820000    1.840000    5.150000
  Q     10.250000    1.340000    5.470000
  Q      9.500000    1.400000    5.030000
  Q     15.190000   14.540000    5.750000
  Q     15.710000   15.920000    5.170000
  Q     15.750000   15.190000    5.590000
  Q     11.340000    7.810000   18.050000
  Q     12.120000    6.480000   18.040000
  Q     12.040000    7.320000   18.050000
  Q      6.470000   18.150000   10.370000
  Q      6.690000   19.400000    9.510000
  Q      6.520000   18.980000   10.240000
  Q      9.250000   18.550000    4.330000
  Q      9.260000   16.980000    4.040000
  Q      8.970000   17.750000    4.390000
  Q      6.300000   15.940000   17.250000
  Q      4.940000   16.560000   17.650000
  Q      5.470000   15.960000   17.430000
  Q     12.120000   18.930000   16.400000
  Q     11.940000   19.590000   17.740000
  Q     12.000000   18.940000   17.230000
  Q      7.690000    3.330000   17.990000
  Q      7.280000    2.060000   17.370000
  Q      7.830000    2.580000   17.690000
  Q     10.120000   18.930000    7.230000
  Q      9.120000   18.220000    6.240000
  Q      9.410000   18.540000    7.000000
  Q      8.370000   11.570000    3.410000
  Q      7.810000   12.610000    2.440000
  Q      8.010000   11.830000    2.710000
  Q      3.900000    3.130000    9.810000
  Q      2.390000    2.920000   10.170000
  Q      3.190000    3.160000   10.310000
  Q     16.850000    5.380000   16.490000
  Q     17.800000    6.070000   15.550000
  Q     17.440000    5.910000   16.270000
  Q     17.270000    9.880000    5.670000
  Q     18.570000   10.090000    6.450000
  Q     18.010000   10.240000    5.840000
  Q      9.320000    8.370000   17.150000
  Q      9.180000    8.920000   18.610000
  Q      9.560000    8.530000   17.970000
  Q     17.570000    7.980000    1.940000
  Q     17.010000    8.610000    0.680000
  Q     17.000000    8.400000    1.510000
  Q     10.280000    4.540000    0.490000
  Q      9.820000    5.960000    0.080000
  Q      9.940000    5.310000    0.580000
  Q      6.010000    8.720000   10.810000
  Q      6.300000    8.810000    9.390000
  Q      6.230000    8.390000   10.090000
  Q     12.690000   12.570000    4.370000
  Q     11.770000   13.350000    3.280000
  Q     12.020000   12.710000    3.850000
  Q      7.920000    4.590000    5.890000
  Q      8.020000    3.750000    4.590000
  Q      8.240000    3.990000    5.380000
  Q     15.790000   19.010000   15.720000
  Q     16.000000   20.540000   15.420000
  Q     16.040000   19.790000   15.860000
  Q     14.180000   14.790000    1.140000
  Q     15.110000   15.290000   -0.050000
  Q     14.910000   14.830000    0.650000
  Q     15.990000    7.860000    5.410000
  Q     14.940000    8.690000    4.510000
  Q     15.620000    8.580000    5.060000
  Q     11.070000   19.800000   14.260000
  Q     11.220000   18.420000   14.830000
  Q     11.510000   19.150000   14.530000
  Q     13.310000    6.770000   16.200000
  Q     13.880000    6.430000   14.820000
  Q     13.750000    6.320000   15.630000
  Q     15.470000   16.700000   19.500000
  Q     16.620000   16.730000   20.490000
  Q     15.900000   16.470000   20.190000
  Q      5.780000   10.920000    9.840000
  Q      5.250000   10.910000    8.380000
  Q      5.800000   10.730000    9.000000
  Q     16.660000    4.870000    2.460000
  Q     16.880000    5.360000    3.920000
  Q     16.490000    4.960000    3.270000
  Q     19.020000   12.830000   12.210000
  Q     20.150000   13.880000   12.220000
  Q     19.820000   13.110000   12.180000
  Q      2.820000   16.430000   13.950000
  Q      1.550000   15.600000   14.400000
  Q      2.380000   15.710000   14.160000
  Q     10.390000   17.140000   11.280000
  Q     11.730000   17.000000   12.040000
  Q     10.870000   16.950000   11.930000
  Q     11.320000   15.510000   21.260000
  Q     12.310000   16.300000   20.330000
  Q     12.070000   15.690000   20.860000
  Q     16.550000    8.890000   20.080000
  Q     17.510000   10.170000   20.030000
  Q     17.120000    9.460000   20.360000
  Q      0.430000   11.640000    9.210000
  Q      1.760000   11.420000    8.560000
  Q      1.230000   11.440000    9.210000
  Q      8.040000   15.100000    3.320000
  Q      9.250000   15.070000    2.390000
  Q      8.830000   15.240000    3.100000
  Q      4.920000    6.630000    5.340000
  Q      3.480000    6.940000    5.200000
  Q      4.240000    6.740000    4.910000
  Q     17.300000   11.280000   17.660000
  Q     16.540000   10.530000   16.480000
  Q     16.790000   11.200000   16.970000
  Q     14.650000    5.410000    8.280000
  Q     15.210000    6.560000    9.050000
  Q     14.630000    6.170000    8.580000
  Q      7.810000   11.210000    0.940000
  Q      7.860000   10.540000   -0.580000
  Q      7.600000   11.080000    0.090000
  Q     10.900000    1.520000    7.140000
  Q     12.250000    1.390000    6.310000
  Q     11.500000    1.150000    6.670000
  Q      4.080000   12.320000    7.500000
  Q      3.490000   11.060000    6.980000
  Q      3.650000   11.620000    7.580000
  Q      5.680000    4.550000    8.810000
  Q      5.390000    3.380000    7.830000
  Q      5.480000    3.740000    8.580000
  Q      8.050000    6.080000   15.090000
  Q      7.710000    5.020000   14.120000
  Q      8.190000    5.600000   14.450000
  Q      3.670000    8.800000    2.490000
  Q      3.090000    8.950000    1.060000
  Q      3.030000    8.890000    1.900000
  Q     18.520000   13.750000    3.670000
  Q     17.140000   13.910000    4.290000
  Q     17.750000   13.490000    3.890000
  Q     11.970000    6.090000    6.310000
  Q     11.000000    5.560000    5.290000
  Q     11.360000    5.580000    6.030000
  Q      5.530000   14.900000    3.610000
  Q      5.920000   13.450000    3.350000
  Q      6.030000   14.280000    3.390000
  Q     11.010000    5.220000   14.630000
  Q     12.060000    4.220000   14.240000
  Q     11.300000    4.450000   14.480000
  Q     19.280000   16.960000   13.320000
  Q     19.340000   17.610000   14.730000
  Q     19.050000   17.500000   13.960000
  Q     12.680000   18.410000   13.380000
  Q     14.220000   17.970000   13.040000
  Q     13.350000   18.010000   12.950000
  Q      3.940000   10.900000    4.590000
  Q      4.630000    9.800000    5.300000
  Q      4.010000   10.300000    5.150000
  Q     13.080000    0.840000   11.140000
  Q     14.620000    1.000000   10.970000
  Q     13.810000    1.260000   11.040000
  Q     14.870000    4.730000   16.510000
  Q     15.720000    3.570000   15.800000
  Q     15.500000    4.120000   16.440000
  Q      8.140000   18.690000   18.170000
  Q      6.850000   18.230000   18.610000
  Q      7.360000   18.790000   18.290000
  Q     15.270000    1.620000   14.630000
  Q     14.750000    3.020000   14.140000
  Q     15.330000    2.430000   14.410000
  Q      8.520000   16.760000    9.900000
  Q      9.160000   17.530000    8.670000
  Q      9.120000   17.210000    9.480000
  Q     10.110000    3.530000    8.190000
  Q      9.200000    3.020000    7.010000
  Q      9.610000    3.020000    7.750000
  Q      4.300000    6.610000    8.570000
  Q      4.090000    5.340000    7.750000
  Q      4.500000    6.010000    7.990000
  Q      7.460000    1.970000    2.910000
  Q      6.650000    3.330000    2.740000
  Q      7.350000    2.810000    2.820000
  Q     19.670000    9.670000    8.550000
  Q     19.370000    9.520000   10.070000
  Q     19.350000    9.900000    9.300000
  Q      6.230000   14.470000    8.020000
  Q      7.780000   14.320000    8.460000
  Q      7.030000   14.740000    8.270000
  Q     18.060000    4.600000    7.520000
  Q     17.750000    3.260000    6.940000
  Q     17.900000    4.080000    6.920000
  Q     19.070000   14.410000    9.210000
  Q     17.990000   15.410000    9.310000
  Q     18.760000   15.130000    9.440000
  Q     18.290000    6.990000    5.510000
  Q     17.500000    5.840000    6.080000
  Q     17.610000    6.530000    5.600000
  Q     12.720000    7.570000    1.790000
  Q     11.380000    7.190000    1.280000
  Q     12.030000    7.100000    1.770000
  Q     12.200000   14.080000   19.660000
  Q     11.890000   13.000000   18.550000
  Q     12.360000   13.550000   18.980000
  Q      4.840000   11.690000    1.970000
  Q      5.980000   11.280000    2.780000
  Q      5.270000   11.690000    2.650000
  Q     10.400000    5.420000   16.940000
  Q     10.710000    4.250000   17.810000
  Q     10.600000    5.060000   17.660000
  Q     18.540000   15.820000   17.690000
  Q     20.010000   16.470000   17.600000
  Q     19.310000   16.110000   17.980000
  Q      7.600000    7.050000   17.510000
  Q      7.030000    8.170000   16.620000
  Q      7.290000    7.370000   16.780000
  Q      6.320000    5.870000    1.220000
  Q      7.880000    5.460000    1.020000
  Q      7.030000    5.550000    0.840000
  Q     15.100000    8.630000    2.020000
  Q     13.880000    9.640000    2.020000
  Q     14.290000    8.890000    2.210000
  Q     13.770000    3.340000    7.460000
  Q     14.030000    2.570000    8.740000
  Q     13.940000    3.250000    8.260000
  Q      0.680000   10.890000   11.210000
  Q      0.450000   11.270000   12.620000
  Q      0.620000   10.720000   11.990000
  Q      4.470000   12.120000   16.580000
  Q      5.240000   12.620000   17.810000
  Q      4.880000   12.060000   17.310000
  Q      2.150000   12.810000   10.140000
  Q      1.890000   14.100000   10.950000
  Q      2.330000   13.420000   10.720000
  Q      3.510000    7.260000   12.630000
  Q      3.080000    5.870000   13.040000
  Q      3.450000    6.610000   13.150000
  Q     13.440000   11.500000    1.130000
  Q     12.440000   11.550000    2.220000
  Q     12.800000   11.220000    1.570000
  Q      6.590000    8.270000    5.540000
  Q      6.910000    8.820000    4.160000
  Q      6.560000    8.840000    4.910000
  Q     12.830000    4.950000    2.310000
  Q     14.280000    4.930000    2.720000
  Q     13.550000    4.580000    2.480000
  Q      6.980000    4.100000   11.030000
  Q      7.730000    2.830000   10.920000
  Q      7.650000    3.640000   11.120000
  Q      9.060000   14.530000    4.980000
  Q      8.480000   14.240000    6.280000
  Q      9.120000   14.450000    5.770000
  Q     10.960000   16.950000    2.900000
  Q     11.970000   17.570000    1.870000
  Q     11.190000   17.340000    2.160000
  Q     11.950000    7.690000   20.480000
  Q     10.460000    7.300000   20.140000
  Q     11.100000    7.670000   20.590000
  Q     15.660000   11.790000    1.360000
  Q     15.020000   13.060000    0.530000
  Q     15.190000   12.210000    0.750000
  Q      5.550000    6.880000   16.460000
  Q      4.550000    6.520000   15.330000
  Q      4.790000    6.860000   16.060000
  Q     19.590000    6.270000   14.640000
  Q     19.000000    7.740000   14.160000
  Q     19.020000    6.890000   14.370000
  Q     13.410000    3.470000    4.970000
  Q     12.360000    4.010000    5.910000
  Q     12.940000    3.470000    5.650000
  Q      8.500000    5.380000   20.150000
  Q      9.560000    5.740000   19.150000
  Q      8.940000    5.920000   19.740000
  Q      5.720000    6.380000   10.700000
  Q      4.610000    5.320000   10.740000
  Q      5.380000    5.600000   10.880000
  Q      7.330000    8.550000   20.020000
  Q      7.430000    9.570000   18.940000
  Q      7.670000    9.170000   19.650000
  Q     17.060000   18.050000   13.250000
  Q     16.300000   18.090000   11.870000
  Q     16.450000   18.260000   12.700000
  Q      9.760000    2.240000   16.910000
  Q     10.610000    2.890000   15.750000
  Q     10.450000    2.390000   16.430000
  Q      9.890000   18.180000   19.360000
  Q     10.620000   18.080000   18.000000
  Q     10.010000   17.900000   18.550000
  Q     12.970000   18.780000   11.260000
  Q     12.490000   17.940000   10.070000
  Q     12.730000   18.660000   10.450000
  Q     19.980000    8.380000   12.460000
  Q     20.820000    9.270000   11.610000
  Q     20.330000    8.620000   11.750000
  Q     13.480000    2.660000   12.440000
  Q     13.370000    4.180000   12.100000
  Q     13.390000    3.500000   12.620000
  Q     12.560000   17.340000    6.390000
  Q     12.810000   18.700000    6.920000
  Q     13.020000   17.950000    6.650000
  Q     17.040000    4.370000   12.410000
  Q     17.610000    5.600000   13.120000
  Q     17.100000    5.220000   12.570000

----------------------------
CARTESIAN COORDINATES (A.U.)
----------------------------
  NO LB      ZA    FRAG     MASS         X           Y           Z
   0 C     6.0000    0    12.011   20.616912   18.500419   17.158713
   1 H     1.0000    0     1.008   19.294104   17.801220   15.873700
   2 H     1.0000    0     1.008   21.977515   17.045330   17.706734
   3 C     6.0000    0    12.011   19.180720   19.728741   19.445282
   4 H     1.0000    0     1.008   17.952398   21.335008   18.859467
   5 H     1.0000    0     1.008   18.141371   18.160268   20.333453
   6 C     6.0000    0    12.011   21.127138   20.673604   21.391700
   7 H     1.0000    0     1.008   21.637364   22.468844   20.975960
   8 H     1.0000    0     1.008   22.997967   19.728741   21.278316
   9 C     6.0000    0    12.011   20.522426   20.598015   24.188495
  10 H     1.0000    0     1.008   20.938166   18.632700   24.679823
  11 H     1.0000    0     1.008   18.802775   21.240522   24.755412
  12 O     8.0000    0    15.999   22.242077   22.128693   25.435714
  13 H     1.0000    0     1.008   21.731851   23.923933   25.095563
  14 O     8.0000    0    15.999   22.072001   20.295659   15.722521
  15 H     1.0000    0     1.008   21.032652   21.826337   15.514652
  16 O     8.0000    0    15.999   14.154049   19.426385   25.227844
  17 H     1.0000    0     1.008   12.453295   18.783878   25.700275
  18 H     1.0000    0     1.008   13.851693   20.881474   24.264084
  19 O     8.0000    0    15.999   24.679823   26.871906   21.637364
  20 H     1.0000    0     1.008   25.681378   25.832556   20.465734
  21 H     1.0000    0     1.008   26.040426   27.665591   22.714508
  22 O     8.0000    0    15.999   15.873700   21.542878   29.895467
  23 H     1.0000    0     1.008   17.045330   22.752303   29.404139
  24 H     1.0000    0     1.008   15.136706   20.881474   28.345892
  25 O     8.0000    0    15.999   14.853247   24.226289   22.979070
  26 H     1.0000    0     1.008   15.042220   25.454611   24.301878
  27 H     1.0000    0     1.008   15.968186   24.698721   21.656261
  28 O     8.0000    0    15.999   28.175817   18.481522   19.445282
  29 H     1.0000    0     1.008   29.612009   17.423275   19.256309
  30 H     1.0000    0     1.008   27.608899   18.651597   17.725631
  31 O     8.0000    0    15.999   19.256309   26.097118   29.555317
  32 H     1.0000    0     1.008   19.350796   27.590002   30.537974
  33 H     1.0000    0     1.008   20.711398   24.982179   29.952159
  34 O     8.0000    0    15.999   15.665830   29.971056   32.900132
  35 H     1.0000    0     1.008   16.024878   28.478173   33.977276
  36 H     1.0000    0     1.008   16.516206   31.407248   33.788303
  37 O     8.0000    0    15.999   20.730296   26.399474   15.250090
  38 H     1.0000    0     1.008   19.483076   26.947495   13.946179
  39 H     1.0000    0     1.008   21.542878   27.816769   16.119364
  40 O     8.0000    0    15.999    9.732090   17.272097   27.533310
  41 H     1.0000    0     1.008    8.673843   18.576008   27.892358
  42 H     1.0000    0     1.008    9.240761   16.251645   28.931707
  43 O     8.0000    0    15.999   25.303433   25.643584   12.434398
  44 H     1.0000    0     1.008   25.813659   23.961727   11.961966
  45 H     1.0000    0     1.008   23.602679   25.530200   13.303672
  46 O     8.0000    0    15.999   27.684488   28.270303   25.567995
  47 H     1.0000    0     1.008   27.514413   27.023084   26.871906
  48 H     1.0000    0     1.008   27.646693   29.838776   26.399474
  49 O     8.0000    0    15.999   24.094008   30.330104   17.650042
  50 H     1.0000    0     1.008   24.849899   29.063988   18.859467
  51 H     1.0000    0     1.008   25.265638   30.405693   16.176056
  52 O     8.0000    0    15.999   14.135151   28.856118   26.966392
  53 H     1.0000    0     1.008   14.739864   30.462385   26.097118
  54 H     1.0000    0     1.008   15.571343   28.081330   27.608899
  55 O     8.0000    0    15.999   10.034446   22.827892   21.542878
  56 H     1.0000    0     1.008    8.465973   23.262529   22.223179
  57 H     1.0000    0     1.008   11.036001   24.150700   22.242077
  58 O     8.0000    0    15.999   19.199618   31.841885   28.572659
  59 H     1.0000    0     1.008   17.612248   31.426146   29.290755
  60 H     1.0000    0     1.008   19.501974   30.915920   27.023084
  61 O     8.0000    0    15.999   31.747399   21.864131   16.837460
  62 H     1.0000    0     1.008   32.881235   22.997967   15.817008
  63 H     1.0000    0     1.008   32.824543   20.371248   17.158713
  64 O     8.0000    0    15.999   15.495754   22.752303   13.681617
  65 H     1.0000    0     1.008   16.346131   22.053104   12.150939
  66 H     1.0000    0     1.008   14.683172   21.429494   14.664275
  67 O     8.0000    0    15.999   17.479967   14.947734   24.849899
  68 H     1.0000    0     1.008   16.213850   16.346131   24.717618
  69 H     1.0000    0     1.008   16.648487   13.454850   25.379022
  70 O     8.0000    0    15.999   12.698960   18.670494   32.597776
  71 H     1.0000    0     1.008   13.757206   20.012200   32.030858
  72 H     1.0000    0     1.008   11.149384   19.728741   32.862337
  73 O     8.0000    0    15.999   20.106686   26.834111   24.453056
  74 H     1.0000    0     1.008   20.257864   26.777419   26.304988
  75 H     1.0000    0     1.008   21.561775   27.552207   23.734960
  76 O     8.0000    0    15.999   19.785433   12.547782   20.238967
  77 H     1.0000    0     1.008   19.388590   11.017103   19.350796
  78 H     1.0000    0     1.008   18.405933   13.133597   21.297214
  79 O     8.0000    0    15.999   17.498864   26.437269   19.369693
  80 H     1.0000    0     1.008   18.613802   26.758522   20.843679
  81 H     1.0000    0     1.008   18.670494   26.040426   18.084679
  82 O     8.0000    0    15.999   17.234302   12.491090   14.966631
  83 H     1.0000    0     1.008   17.612248   12.963521   16.705179
  84 H     1.0000    0     1.008   18.481522   11.262768   14.437508
  85 O     8.0000    0    15.999   27.608899   24.660926   17.876809
  86 H     1.0000    0     1.008   26.512858   24.377467   16.402823
  87 H     1.0000    0     1.008   28.515967   23.092453   17.933501
  88 O     8.0000    0    15.999   27.438823   21.032652   24.056214
  89 H     1.0000    0     1.008   25.794762   21.505083   24.679823
  90 H     1.0000    0     1.008   27.230954   20.333453   22.355460
  91 O     8.0000    0    15.999   23.470399   22.582227   30.330104
  92 H     1.0000    0     1.008   23.319220   21.335008   28.931707
  93 H     1.0000    0     1.008   23.678268   21.486186   31.785194
  94 O     8.0000    0    15.999   23.130248   18.557111   10.809233
  95 H     1.0000    0     1.008   23.394810   18.500419   12.623371
  96 H     1.0000    0     1.008   21.505083   17.650042   10.639158
  97 O     8.0000    0    15.999   20.125583   14.116254   29.045091
  98 H     1.0000    0     1.008   19.426385   14.475302   27.438823
  99 H     1.0000    0     1.008   21.486186   15.287884   29.045091
 100 O     8.0000    0    15.999   27.967947   18.594905   13.983973
 101 H     1.0000    0     1.008   29.045091   19.993302   13.530439
 102 H     1.0000    0     1.008   28.572659   17.442172   12.774549
 103 O     8.0000    0    15.999    8.825021   17.328789   22.355460
 104 H     1.0000    0     1.008    8.862816   16.969741   24.188495
 105 H     1.0000    0     1.008    9.089583   19.067337   22.185385
 106 O     8.0000    0    15.999   18.708289   15.646932   10.809233
 107 H     1.0000    0     1.008   18.216960   14.550891   12.264323
 108 H     1.0000    0     1.008   18.462624   14.531994    9.316350
 109 O     8.0000    0    15.999   31.577324   14.248535   19.048439
 110 H     1.0000    0     1.008   31.671810   13.454850   20.786987
 111 H     1.0000    0     1.008   33.164694   13.700514   18.292549
 112 Q     0.6645    0     0.000    7.143165   27.174262   19.048439
 113 Q     0.6645    0     0.000    8.862816   25.473508   17.744528
 114 Q    -1.3290    0     0.000    8.220309   26.834111   18.027987
 115 Q     0.6645    0     0.000   14.928836   28.515967   38.172468
 116 Q     0.6645    0     0.000   15.117809   31.180481   39.325201
 117 Q    -1.3290    0     0.000   15.080015   29.555317   39.344098
 118 Q     0.6645    0     0.000   30.897022   29.063988   23.867241
 119 Q     0.6645    0     0.000   32.371009   26.758522   22.601125
 120 Q    -1.3290    0     0.000   32.182036   28.138022   23.470399
 121 Q     0.6645    0     0.000   16.724076   24.377467   35.054420
 122 Q     0.6645    0     0.000   14.172946   24.793207   35.942591
 123 Q    -1.3290    0     0.000   15.609138   25.227844   35.734721
 124 Q     0.6645    0     0.000   26.304988   23.961727   36.792968
 125 Q     0.6645    0     0.000   28.251406   22.582227   38.720488
 126 Q    -1.3290    0     0.000   27.552207   22.979070   37.303194
 127 Q     0.6645    0     0.000   10.790336   28.478173   25.001077
 128 Q     0.6645    0     0.000    7.785672   27.873460   24.887693
 129 Q    -1.3290    0     0.000    9.316350   28.270303   24.320775
 130 Q     0.6645    0     0.000    6.973089   29.063988    8.503768
 131 Q     0.6645    0     0.000    7.804569   30.160029   11.017103
 132 Q    -1.3290    0     0.000    8.031336   29.687598    9.543117
 133 Q     0.6645    0     0.000   33.542639   18.027987   26.720728
 134 Q     0.6645    0     0.000   35.772516   19.029542   27.911255
 135 Q    -1.3290    0     0.000   35.035523   18.160268   26.815214
 136 Q     0.6645    0     0.000   28.364789   21.769645    8.560459
 137 Q     0.6645    0     0.000   25.775864   20.805885    9.864370
 138 Q    -1.3290    0     0.000   27.079775   21.788542    9.505322
 139 Q     0.6645    0     0.000   36.150461   19.294104    8.050233
 140 Q     0.6645    0     0.000   37.964598   21.505083    7.577802
 141 Q    -1.3290    0     0.000   37.435475   20.049994    7.369932
 142 Q     0.6645    0     0.000   36.868557   12.339912   15.628035
 143 Q     0.6645    0     0.000   36.018180   10.280110   17.272097
 144 Q    -1.3290    0     0.000   35.734721   11.584021   16.459515
 145 Q     0.6645    0     0.000   25.605789   16.894152   34.941036
 146 Q     0.6645    0     0.000   26.758522   19.804330   35.224495
 147 Q    -1.3290    0     0.000   26.210501   18.368138   34.506399
 148 Q     0.6645    0     0.000   30.802536   31.274968   29.725392
 149 Q     0.6645    0     0.000   28.308097   31.501735   30.991509
 150 Q    -1.3290    0     0.000   29.366344   31.917474   29.914365
 151 Q     0.6645    0     0.000   22.790097   37.907906   16.327234
 152 Q     0.6645    0     0.000   21.788542   39.495276   14.078460
 153 Q    -1.3290    0     0.000   21.939720   38.172468   14.966631
 154 Q     0.6645    0     0.000   29.082885   23.602679   31.407248
 155 Q     0.6645    0     0.000   26.493960   24.188495   30.273413
 156 Q    -1.3290    0     0.000   27.930152   24.585337   30.821433
 157 Q     0.6645    0     0.000   18.179165   19.388590   10.128932
 158 Q     0.6645    0     0.000   19.690946   21.448392    8.787227
 159 Q    -1.3290    0     0.000   18.349241   20.730296    9.335247
 160 Q     0.6645    0     0.000   13.889487   17.971296    2.456644
 161 Q     0.6645    0     0.000   16.024878   16.969741    4.025117
 162 Q    -1.3290    0     0.000   14.513097   17.120919    3.647171
 163 Q     0.6645    0     0.000   10.393494   27.552207   35.715824
 164 Q     0.6645    0     0.000    9.883268   25.964837   38.002393
 165 Q    -1.3290    0     0.000   10.299007   26.210501   36.490612
 166 Q     0.6645    0     0.000   21.032652   28.421481   10.412391
 167 Q     0.6645    0     0.000   23.848344   28.326995   10.771439
 168 Q    -1.3290    0     0.000   22.544433   29.007296   10.242316
 169 Q     0.6645    0     0.000   25.605789   32.068652    8.503768
 170 Q     0.6645    0     0.000   26.853008   32.805646    6.047124
 171 Q    -1.3290    0     0.000   26.607344   31.898577    7.332137
 172 Q     0.6645    0     0.000   26.437269   16.535104   40.799187
 173 Q     0.6645    0     0.000   27.552207   14.361919   39.438584
 174 Q    -1.3290    0     0.000   26.475063   15.476857   39.627557
 175 Q     0.6645    0     0.000   17.272097   23.319220   39.911016
 176 Q     0.6645    0     0.000   19.426385   21.523981   41.120441
 177 Q    -1.3290    0     0.000   18.821672   22.733405   40.099989
 178 Q     0.6645    0     0.000   26.342782   13.152494   13.190288
 179 Q     0.6645    0     0.000   25.246741   15.174501   11.376151
 180 Q    -1.3290    0     0.000   25.681378   13.700514   11.867480
 181 Q     0.6645    0     0.000   18.273652   36.490612   19.388590
 182 Q     0.6645    0     0.000   16.251645   38.229160   20.125583
 183 Q    -1.3290    0     0.000   17.763426   37.718934   20.182275
 184 Q     0.6645    0     0.000   13.001316   34.298529    8.900610
 185 Q     0.6645    0     0.000   10.450186   33.108002    8.125822
 186 Q    -1.3290    0     0.000   11.395049   34.241838    8.768329
 187 Q     0.6645    0     0.000   12.547782   30.405693   18.235857
 188 Q     0.6645    0     0.000   11.357254   30.027748   20.616912
 189 Q    -1.3290    0     0.000   12.302117   30.745844   19.709844
 190 Q     0.6645    0     0.000   27.873460   35.243392   11.527329
 191 Q     0.6645    0     0.000   30.556872   36.471714   11.943069
 192 Q    -1.3290    0     0.000   29.007296   36.377228   11.357254
 193 Q     0.6645    0     0.000   29.895467   27.249851   16.402823
 194 Q     0.6645    0     0.000   30.783639   29.007296   14.210741
 195 Q    -1.3290    0     0.000   30.537974   28.591556   15.779213
 196 Q     0.6645    0     0.000   11.791891   24.094008   12.075350
 197 Q     0.6645    0     0.000    9.845473   26.002632   11.357254
 198 Q    -1.3290    0     0.000   10.544672   25.001077   12.321014
 199 Q     0.6645    0     0.000   23.016864   12.056453   20.692501
 200 Q     0.6645    0     0.000   25.719173   11.621816   19.690946
 201 Q    -1.3290    0     0.000   24.604234   11.791891   20.843679
 202 Q     0.6645    0     0.000   14.588686   12.150939   13.171391
 203 Q     0.6645    0     0.000   11.716302   11.602918   13.398158
 204 Q    -1.3290    0     0.000   13.095802   11.829686   12.604473
 205 Q     0.6645    0     0.000   28.440378   10.563569   39.438584
 206 Q     0.6645    0     0.000   29.101782   11.848583   36.849660
 207 Q    -1.3290    0     0.000   29.196269   11.584021   38.437030
 208 Q     0.6645    0     0.000   20.390145    7.502213   23.451501
 209 Q     0.6645    0     0.000   18.103576    7.029781   21.977515
 210 Q    -1.3290    0     0.000   19.634255    6.897500   22.279871
 211 Q     0.6645    0     0.000    9.902165   13.095802    6.028226
 212 Q     0.6645    0     0.000   11.527329   14.607583    3.892836
 213 Q    -1.3290    0     0.000   10.336802   13.700514    4.573137
 214 Q     0.6645    0     0.000   35.583543   27.986844   25.964837
 215 Q     0.6645    0     0.000   36.226050   25.435714   27.495515
 216 Q    -1.3290    0     0.000   36.452817   27.023084   27.023084
 217 Q     0.6645    0     0.000   31.463940   14.267432   33.013516
 218 Q     0.6645    0     0.000   29.687598   16.365028   33.259180
 219 Q    -1.3290    0     0.000   30.934817   15.533549   33.693817
 220 Q     0.6645    0     0.000    7.029781   15.439063   19.615357
 221 Q     0.6645    0     0.000    4.403062   13.946179   19.048439
 222 Q    -1.3290    0     0.000    6.009329   14.286330   19.029542
 223 Q     0.6645    0     0.000   20.087789   21.996412   36.963043
 224 Q     0.6645    0     0.000   20.446837   19.879919   35.035523
 225 Q    -1.3290    0     0.000   20.220070   21.353905   35.489057
[...]
 326   Q   :   -0.173597258   -0.194692880    0.041210301
 327   Q   :   -0.017478903    0.247289153   -0.142218520
 328   Q   :    0.193570807   -0.050287288    0.096239812
 329   Q   :   -0.215645795    0.145458049   -0.002089925
 330   Q   :    0.028440873   -0.286612837   -0.005699767
 331   Q   :    0.199475599    0.138549730    0.010221695
 332   Q   :   -0.009932245   -0.275464199    0.029766714
 333   Q   :    0.062051979    0.126881323   -0.250000226
 334   Q   :   -0.054460855    0.162196993    0.220695969
 335   Q   :    0.107465896    0.269562370   -0.018001814
 336   Q   :    0.105582212   -0.199096245   -0.097742865
 337   Q   :   -0.200610911   -0.071723819    0.109232449
 338   Q   :    0.259374913    0.005653005   -0.050032546
 339   Q   :   -0.185268315    0.228940015    0.087080484
 340   Q   :   -0.080258834   -0.223244115   -0.039162077
 341   Q   :    0.036707879    0.005372444   -0.274967208
 342   Q   :   -0.029141592    0.244867168    0.179180040
 343   Q   :    0.003516334   -0.245146246    0.095019555
 344   Q   :   -0.073502260    0.283692263    0.111511127
 345   Q   :   -0.223572632   -0.182883488   -0.117997082
 346   Q   :    0.288934671   -0.099915920    0.010269184
 347   Q   :    0.244060217    0.123226882    0.058475331
 348   Q   :   -0.072404837   -0.086095764   -0.231209324
 349   Q   :   -0.174429136   -0.029739337    0.165092222
 350   Q   :    0.118859900   -0.072245599    0.247099324
 351   Q   :   -0.064874546    0.263866120   -0.082268717
 352   Q   :   -0.049015376   -0.187104479   -0.156364853
 353   Q   :    0.204776765   -0.018261019   -0.160488652
 354   Q   :   -0.275456431   -0.087409706   -0.067308092
 355   Q   :    0.055122158    0.100874134    0.229959797
 356   Q   :   -0.208490385   -0.184293140    0.063580340
 357   Q   :    0.121100970    0.035420682   -0.277247196
 358   Q   :    0.094799625    0.146228980    0.214143236
 359   Q   :   -0.239847842   -0.129651618   -0.041490126
 360   Q   :    0.191921348   -0.065305346    0.219828558
 361   Q   :    0.048525755    0.194817317   -0.167252854
 362   Q   :   -0.086888096   -0.040957583   -0.248448730
 363   Q   :   -0.129433692    0.140687531    0.197239630
 364   Q   :    0.208326936   -0.093350556    0.043357204
 365   Q   :    0.220009356   -0.158443172    0.145029553
 366   Q   :    0.017012592    0.057885787   -0.274627076
 367   Q   :   -0.224720125    0.097687702    0.124391250
 368   Q   :    0.117866978   -0.262965578   -0.044860597
 369   Q   :   -0.035877308    0.240574587   -0.194868306
 370   Q   :   -0.074185494    0.020085954    0.237354845
 371   Q   :   -0.072134938    0.135799063    0.248128923
 372   Q   :    0.024377578    0.159565106   -0.252866337
 373   Q   :    0.061682300   -0.293638070   -0.002527528
 374   Q   :    0.214250828   -0.037132970    0.164601310
 375   Q   :   -0.071304283    0.179261524   -0.163143867
 376   Q   :   -0.150382188   -0.136933023    0.006134113
 377   Q   :   -0.108587495    0.193109385    0.164114902
 378   Q   :   -0.082470069   -0.074024236   -0.249887296
 379   Q   :    0.197036384   -0.111024447    0.085764669
 380   Q   :   -0.100268417   -0.268573686   -0.065408937
 381   Q   :   -0.022771509    0.238680538   -0.151544223
 382   Q   :    0.122790857    0.038108106    0.216050655
 383   Q   :   -0.211591326   -0.006163534    0.123034793
 384   Q   :    0.049965629    0.157335596   -0.234158536
 385   Q   :    0.175283440   -0.134658836    0.105742895
 386   Q   :    0.100697172   -0.202879037    0.105154096
 387   Q   :   -0.198104806    0.024832953   -0.155784192
 388   Q   :    0.087220409    0.176771978    0.043250571
 389   Q   :   -0.175392005    0.229828110   -0.091855022
 390   Q   :   -0.096322983   -0.230013563    0.101751305
 391   Q   :    0.269438303    0.021703319   -0.008203616
 392   Q   :   -0.147694454    0.154115746    0.180603584
 393   Q   :    0.029135656    0.049174401   -0.288696623
 394   Q   :    0.108215472   -0.200776770    0.107442344
 395   Q   :   -0.121692193    0.088124470   -0.233658804
 396   Q   :    0.277231423    0.109481603    0.100590729
 397   Q   :   -0.150440102   -0.189732946    0.144607819
 398   Q   :   -0.015493611    0.055568621    0.261569842
 399   Q   :   -0.179785544    0.064173972   -0.200247616
 400   Q   :    0.199580852   -0.120909041   -0.061828602
 401   Q   :    0.077294790   -0.019952416   -0.299659608
 402   Q   :    0.140593928    0.134058911    0.195299053
 403   Q   :   -0.213555587   -0.118618086    0.101660354
 404   Q   :   -0.267343969   -0.078326790    0.008978457
 405   Q   :    0.106556458    0.278846353    0.002809904
 406   Q   :    0.162492516   -0.192086598    0.004340518
 407   Q   :    0.123792187    0.230083873   -0.060865227
 408   Q   :   -0.262253544   -0.022733338    0.075664016
 409   Q   :    0.126070553   -0.196691091   -0.021290268
 410   Q   :   -0.159986507    0.074106904   -0.234489342
 411   Q   :    0.263209743    0.013747433    0.020215461
 412   Q   :   -0.106629649   -0.089292012    0.211905298
 413   Q   :   -0.246704479   -0.043853732    0.115019295
 414   Q   :    0.059931736    0.220724887   -0.188501236
 415   Q   :    0.188222456   -0.165997494    0.081135461
 416   Q   :   -0.198714491   -0.181463995   -0.096305008
 417   Q   :    0.108135941    0.219860718   -0.112596862
 418   Q   :    0.084969919   -0.042951460    0.212422116
 419   Q   :   -0.299149278    0.082369986   -0.009916872
 420   Q   :    0.154380984    0.004124005   -0.230004171
 421   Q   :    0.136804207   -0.098281120    0.233017562
 422   Q   :   -0.269786471   -0.057264051    0.073613096
 423   Q   :    0.127989526   -0.059734031   -0.227742513
 424   Q   :    0.141467170    0.117626597    0.154824491
 425   Q   :    0.257879004   -0.036164473    0.179148920
 426   Q   :   -0.249651095    0.069200846    0.115899305
 427   Q   :   -0.010881066   -0.032615099   -0.291262434
 428   Q   :    0.165170010    0.022084279    0.208801956
 429   Q   :   -0.068609270   -0.209822326   -0.151047224
 430   Q   :   -0.101142604    0.178293983   -0.052006118
 431   Q   :    0.025739985   -0.280342784   -0.110286823
 432   Q   :    0.197038915    0.110763813    0.155486206
 433   Q   :   -0.221946336    0.167169168   -0.045098913
 434   Q   :    0.060539857    0.017530700    0.235431662
 435   Q   :    0.081634008   -0.169047289   -0.184821775
 436   Q   :   -0.147277603    0.151656807   -0.071324836
 437   Q   :   -0.198172638    0.131699817    0.147772499
 438   Q   :    0.235363980    0.081228046   -0.107738798
 439   Q   :   -0.020461948   -0.230706749   -0.034265326
 440   Q   :    0.150975818    0.244596586   -0.034521403
 441   Q   :   -0.053236167   -0.180920711   -0.204441377
 442   Q   :   -0.109838956   -0.061147688    0.250847893
 443   Q   :    0.064010074    0.245464171    0.059226918
 444   Q   :   -0.034593218   -0.118654518   -0.254698960
 445   Q   :   -0.022164236   -0.122887168    0.199407467
 446   Q   :   -0.062752708    0.178172364    0.239687482
 447   Q   :   -0.179529331   -0.207147191   -0.112912570
 448   Q   :    0.248015529    0.012766479   -0.125495454
 449   Q   :    0.206024382   -0.015790617    0.167671429
 450   Q   :    0.039982488    0.026095912   -0.300439195
 451   Q   :   -0.246512099   -0.006027745    0.131972860
 452   Q   :    0.273133865    0.105313277   -0.066943686
 453   Q   :   -0.196136253    0.152438488    0.137139549
 454   Q   :   -0.071733210   -0.254751108   -0.075422567
 455   Q   :    0.193681091    0.168893747    0.087162584
 456   Q   :   -0.115475606    0.005891788   -0.266836723
 457   Q   :   -0.085821013   -0.171774306    0.185293806
 458   Q   :   -0.194131282    0.214954801    0.076435105
 459   Q   :   -0.041306020   -0.276733107   -0.002783994
 460   Q   :    0.232126999    0.067130346   -0.076666589
 461   Q   :   -0.086006443    0.272173595    0.046820107
 462   Q   :    0.272830393   -0.064934939   -0.084891151
 463   Q   :   -0.186807556   -0.201432859    0.041849436
 464   Q   :    0.083540808   -0.180551284   -0.192946546
 465   Q   :    0.120930932    0.028009634    0.283576594
 466   Q   :   -0.195872611    0.151920884   -0.086485249
 467   Q   :   -0.176556070    0.105329957    0.109796441
 468   Q   :    0.254576631   -0.012660895    0.030721032
 469   Q   :   -0.068021474   -0.106727975   -0.137319203
 470   Q   :   -0.016241151    0.223392188   -0.205650759
 471   Q   :    0.237689055   -0.179695139    0.054739999
 472   Q   :   -0.226682470   -0.043963867    0.146758126
 473   Q   :   -0.224985854   -0.151041675    0.030024101
 474   Q   :    0.272728907   -0.100554649   -0.024107708
 475   Q   :   -0.039526082    0.247005137   -0.015572835
 476   Q   :   -0.182934250    0.175645830    0.016047943
 477   Q   :    0.063779274   -0.150976547   -0.197358087
 478   Q   :    0.116684606   -0.033330466    0.197545740
 479   Q   :    0.318477604   -0.066730378   -0.035318344
 480   Q   :   -0.175511762   -0.231912903    0.128238300
 481   Q   :   -0.150200182    0.301991072   -0.093516642
 482   Q   :   -0.033467878   -0.287478588    0.074413179
 483   Q   :   -0.177871937    0.170128218   -0.072654085
 484   Q   :    0.215253657    0.103650934   -0.004233220
 485   Q   :   -0.198450867   -0.141518278    0.125030467
 486   Q   :   -0.000071754    0.087542575   -0.237148735
 487   Q   :    0.196356597    0.044843942    0.111882272
 488   Q   :    0.160784607    0.177884537    0.131757393
 489   Q   :   -0.135051131   -0.002792263   -0.243254921
 490   Q   :   -0.027342410   -0.170864377    0.106898034
 491   Q   :   -0.066562447    0.173798849    0.178321229
 492   Q   :   -0.163639068   -0.253313683   -0.081490004
 493   Q   :    0.217438143    0.078211922   -0.099632165
 494   Q   :    0.019147411   -0.286405867    0.035468122
 495   Q   :   -0.224627409    0.148209870   -0.015857176
 496   Q   :    0.200835549    0.134170071   -0.027260643
 497   Q   :    0.110813697   -0.093550325   -0.265391324
 498   Q   :    0.010554778   -0.129305895    0.228613471
 499   Q   :   -0.119699731    0.219587925    0.032186271
 500   Q   :   -0.234146821   -0.082748291   -0.070219103
 501   Q   :    0.223731194   -0.135413988    0.046707772
 502   Q   :    0.014912351    0.214927869    0.017836910
 503   Q   :    0.062120624    0.190548355    0.245423353
 504   Q   :   -0.049943911   -0.293655671    0.030150034
 505   Q   :   -0.011035896    0.085385102   -0.277393221
 506   Q   :    0.096648531   -0.281696288   -0.104269834
 507   Q   :   -0.273842493    0.083867761   -0.056580835
 508   Q   :    0.179891482    0.202251435    0.162259159
 509   Q   :    0.264600026    0.165922545   -0.021060359
 510   Q   :   -0.020731006   -0.212231624    0.163322200
 511   Q   :   -0.237425117    0.054735461   -0.136285766
 512   Q   :    0.221871694    0.166646534   -0.014497253
 513   Q   :   -0.243133005    0.049379963   -0.201514390
 514   Q   :    0.017359954   -0.211874117    0.198173878
 515   Q   :   -0.058902473    0.145743141    0.193704044
 516   Q   :   -0.167146666   -0.179575189   -0.143838296
 517   Q   :    0.213759922    0.037625158   -0.062904631
 518   Q   :   -0.160147745   -0.009785828   -0.281071155
 519   Q   :    0.242039162   -0.148440016    0.028779711
 520   Q   :   -0.092445339    0.148837117    0.244292286
 521   Q   :   -0.075473403    0.112366773   -0.261161927
 522   Q   :    0.031530568   -0.286159575    0.047864642
 523   Q   :    0.044478852    0.169165595    0.206177336
 524   Q   :   -0.228660851   -0.079830627   -0.090397007
 525   Q   :    0.221462950    0.117416415   -0.135392692
 526   Q   :    0.011833243   -0.032485942    0.233567087
 527   Q   :    0.094691741   -0.097145966    0.241265406
 528   Q   :   -0.080447574    0.242541144   -0.044797220
 529   Q   :   -0.005870888   -0.151760495   -0.198606126
 530   Q   :   -0.213140683    0.100033978    0.126644749
 531   Q   :    0.260728182   -0.017426576    0.067925426
 532   Q   :   -0.048021104   -0.086899473   -0.199685151
 533   Q   :    0.239410066   -0.068415934   -0.060926004
 534   Q   :   -0.108325888    0.220155285   -0.064372503
 535   Q   :   -0.130409162   -0.151528036    0.128993685
 536   Q   :   -0.056754274    0.023085945   -0.281689544
 537   Q   :    0.033468207   -0.248260048    0.154290791
 538   Q   :    0.032891144    0.216808852    0.136000498
 539   Q   :    0.009724072    0.092254267   -0.308218595
 540   Q   :   -0.058967410    0.199672132    0.199303761
 541   Q   :    0.043447658   -0.284764526    0.108680245
 542   Q   :   -0.137368211    0.025922043   -0.249439448
 543   Q   :    0.126683512    0.199823385    0.157661035
 544   Q   :    0.009685163   -0.225839813    0.079241899
 545   Q   :   -0.067859682   -0.170273207   -0.182456256
 546   Q   :   -0.166290303    0.239466604    0.069371678
 547   Q   :    0.230469911   -0.067001280    0.117794843
 548   Q   :   -0.000770285    0.228078137   -0.193112073
 549   Q   :   -0.144949526   -0.255149050   -0.060284038
 550   Q   :    0.147385711    0.022516874    0.258591944
 551   Q   :    0.215369152    0.102697276   -0.144058716
 552   Q   :   -0.129994127    0.131232382    0.237747379
 553   Q   :   -0.097611091   -0.229482362   -0.099354215
 554   Q   :    0.013999558   -0.195145849    0.201778950
 555   Q   :    0.134093256   -0.022287482   -0.267645853
 556   Q   :   -0.143954141    0.217419202    0.065224173
 557   Q   :   -0.259881593    0.152284420   -0.058443611
 558   Q   :    0.238834113    0.140605762    0.078350227
 559   Q   :    0.013984054   -0.296438826   -0.023803244
 560   Q   :   -0.257583715    0.149733285   -0.043550131
 561   Q   :    0.010901931   -0.280884506   -0.071371067
 562   Q   :    0.238679072    0.129753795    0.116521436
 563   Q   :   -0.041467428    0.024250495   -0.315437886
 564   Q   :   -0.218619800   -0.071966382    0.155603819
 565   Q   :    0.247211242    0.044393370    0.157072732
 566   Q   :   -0.054758851   -0.129744958    0.242280509
 567   Q   :    0.267449400    0.064009879   -0.077897591
 568   Q   :   -0.216852272    0.071411638   -0.167237386
 569   Q   :    0.271052342   -0.005415276   -0.047772844
 570   Q   :   -0.186161913   -0.123470615   -0.155691071
 571   Q   :   -0.084833940    0.126007564    0.200894350
 572   Q   :    0.140339832   -0.120511159    0.184986488
 573   Q   :   -0.053112769    0.221814992   -0.058158930
 574   Q   :   -0.078983266   -0.110420416   -0.138670574
 575   Q   :    0.236162694    0.003245522    0.116013136
 576   Q   :   -0.067467187   -0.116005034   -0.253490941
 577   Q   :   -0.184328456    0.099901522    0.147060111
 578   Q   :    0.175289224   -0.186564226    0.075874482
 579   Q   :    0.012800990    0.240884415   -0.073112522
 580   Q   :   -0.173653591   -0.054456594   -0.009003882
 581   Q   :    0.171063288    0.010872990   -0.243910485
 582   Q   :   -0.187268850    0.184717605    0.085140754
 583   Q   :    0.020800264   -0.201139626    0.147824657
 584   Q   :   -0.173376172   -0.237847441    0.154198684
 585   Q   :    0.172490424   -0.068479010   -0.160159271
 586   Q   :   -0.010203279    0.307537197    0.019467069
 587   Q   :    0.088874645    0.229358200   -0.057738256
 588   Q   :   -0.280691008   -0.091887428   -0.058223897
 589   Q   :    0.184835596   -0.137532399    0.117239456
 590   Q   :   -0.159079458   -0.260510561    0.140344252
 591   Q   :   -0.078865647    0.118895779   -0.223903724
 592   Q   :    0.234683802    0.139350106    0.104225416
 593   Q   :    0.200230353   -0.081565437    0.174100198
 594   Q   :   -0.044823115   -0.065230071   -0.260184181
 595   Q   :   -0.153401574    0.150634378    0.091362461
 596   Q   :   -0.228634416   -0.039699139    0.152469898
 597   Q   :    0.034577214    0.162079825   -0.212267819
 598   Q   :    0.200149896   -0.134114292    0.058814455
 599   Q   :   -0.034645228    0.096869607    0.258235584
 600   Q   :    0.193786237    0.064443665   -0.165195449
 601   Q   :   -0.154805154   -0.162819528   -0.081644939
 602   Q   :    0.077648294    0.027450958    0.256451831
 603   Q   :   -0.076977722   -0.243043530   -0.110422005
 604   Q   :   -0.007082046    0.229005681   -0.148240874
 605   Q   :   -0.119215525   -0.080202250    0.267920552
 606   Q   :    0.178659821    0.243808335   -0.041753721
 607   Q   :   -0.055765417   -0.172360944   -0.218204775
 608   Q   :    0.031683825   -0.254778704   -0.054157601
 609   Q   :   -0.001791269    0.210763478   -0.178064207
 610   Q   :   -0.031701133    0.043511194    0.231205265
 611   Q   :   -0.190455852   -0.229279737   -0.106607492
 612   Q   :   -0.087704890    0.263996649    0.086026456
 613   Q   :    0.276257390   -0.033799710    0.024402082
 614   Q   :   -0.004867326   -0.271179373   -0.043553643
 615   Q   :    0.177712774    0.111180150    0.189981570
 616   Q   :   -0.165770882    0.146315703   -0.150839990

Difference to translation invariance:
           :   -0.0003650019   -0.0002819487   -0.0004996580

Difference to rotation invariance:
           :   -0.0074313020    0.0072409929    0.0046057941

Norm of the cartesian gradient     ...    6.2237265744
RMS gradient                       ...    0.1447769827
MAX gradient                       ...    0.3184776042

-------
TIMINGS
-------

Total SCF gradient time            ...      231.398 sec

One electron gradient       ....      28.653 sec  ( 12.4%)
RI-J Coulomb gradient       ....      12.656 sec  (  5.5%)
COSX gradient               ....     144.549 sec  ( 62.5%)
XC gradient                 ....      18.574 sec  (  8.0%)

Maximum memory used throughout the entire SCFGRAD-calculation: 887.5 MB

                            ***************************************
                            *     ORCA property calculations      *
                            ***************************************

                                    ---------------------
                                    Active property flags
                                    ---------------------
   (+) Dipole Moment


------------------------------------------------------------------------------
                       ORCA ELECTRIC PROPERTIES CALCULATION
------------------------------------------------------------------------------

Dipole Moment Calculation                       ... on
Quadrupole Moment Calculation                   ... off
Polarizability Calculation                      ... off
GBWName                                         ... final018.orca.gbw
Electron density                                ... final018.orca.scfp
The origin for moment calculation is the CENTER OF MASS  = (20.269552, 21.705157 21.767285)

-------------
DIPOLE MOMENT
-------------
                                X             Y             Z
Electronic contribution:      1.13029       1.44998       1.15372
Nuclear contribution   :     -9.07332      -2.83402     -16.92622
                        -----------------------------------------
Total Dipole Moment    :     -7.94304      -1.38404     -15.77250
                        -----------------------------------------
Magnitude (a.u.)       :     17.71381
Magnitude (Debye)      :     45.02493



--------------------
Rotational spectrum 
--------------------
 
Rotational constants in cm-1:     0.001900     0.001361     0.001158 
Rotational constants in MHz :    56.961690    40.798503    34.721322 

 Dipole components along the rotational axes: 
x,y,z [a.u.] :    -7.355236    10.024346   -12.617134 
x,y,z [Debye]:   -18.695525    25.479863   -32.070206 

 

Timings for individual modules:

Sum of individual times         ...     1072.584 sec (=  17.876 min)
GTO integral calculation        ...       14.341 sec (=   0.239 min)   1.3 %
SCF iterations                  ...      822.090 sec (=  13.702 min)  76.6 %
SCF Gradient evaluation         ...      236.153 sec (=   3.936 min)  22.0 %
                             ****ORCA TERMINATED NORMALLY****
TOTAL RUN TIME: 0 days 0 hours 18 minutes 0 seconds 793 msec
