
                                 *****************
                                 * O   R   C   A *
                                 *****************

                                            #,                                       
                                            ###                                      
                                            ####                                     
                                            #####                                    
                                            ######                                   
                                           ########,                                 
                                     ,,################,,,,,                         
                               ,,#################################,,                 
                          ,,##########################################,,             
                       ,#########################################, ''#####,          
                    ,#############################################,,   '####,        
                  ,##################################################,,,,####,       
                ,###########''''           ''''###############################       
              ,#####''   ,,,,##########,,,,          '''####'''          '####       
            ,##' ,,,,###########################,,,                        '##       
           ' ,,###''''                  '''############,,,                           
         ,,##''                                '''############,,,,        ,,,,,,###''
      ,#''                                            '''#######################'''  
     '                                                          ''''####''''         
             ,#######,   #######,   ,#######,      ##                                
            ,#'     '#,  ##    ##  ,#'     '#,    #''#        ######   ,####,        
            ##       ##  ##   ,#'  ##            #'  '#       #        #'  '#        
            ##       ##  #######   ##           ,######,      #####,   #    #        
            '#,     ,#'  ##    ##  '#,     ,#' ,#      #,         ##   #,  ,#        
             '#######'   ##     ##  '#######'  #'      '#     #####' # '####'        



                  #######################################################
                  #                        -***-                        #
                  #          Department of theory and spectroscopy      #
                  #    Directorship and core code : Frank Neese         #
                  #        Max Planck Institute fuer Kohlenforschung    #
                  #                Kaiser Wilhelm Platz 1               #
                  #                 D-45470 Muelheim/Ruhr               #
                  #                      Germany                        #
                  #                                                     #
                  #                  All rights reserved                #
                  #                        -***-                        #
                  #######################################################


                         Program Version 5.0.3 -  RELEASE  -


 With contributions from (in alphabetic order):
   Daniel Aravena         : Magnetic Suceptibility
   Michael Atanasov       : Ab Initio Ligand Field Theory (pilot matlab implementation)
   Alexander A. Auer      : GIAO ZORA, VPT2 properties, NMR spectrum
   Ute Becker             : Parallelization
   Giovanni Bistoni       : ED, misc. LED, open-shell LED, HFLD
   Martin Brehm           : Molecular dynamics
   Dmytro Bykov           : SCF Hessian
   Vijay G. Chilkuri      : MRCI spin determinant printing, contributions to CSF-ICE
   Dipayan Datta          : RHF DLPNO-CCSD density
   Achintya Kumar Dutta   : EOM-CC, STEOM-CC
   Dmitry Ganyushin       : Spin-Orbit,Spin-Spin,Magnetic field MRCI
   Miquel Garcia          : C-PCM and meta-GGA Hessian, CC/C-PCM, Gaussian charge scheme
   Yang Guo               : DLPNO-NEVPT2, F12-NEVPT2, CIM, IAO-localization
   Andreas Hansen         : Spin unrestricted coupled pair/coupled cluster methods
   Benjamin Helmich-Paris : MC-RPA, TRAH-SCF, COSX integrals
   Lee Huntington         : MR-EOM, pCC
   Robert Izsak           : Overlap fitted RIJCOSX, COSX-SCS-MP3, EOM
   Marcus Kettner         : VPT2
   Christian Kollmar      : KDIIS, OOCD, Brueckner-CCSD(T), CCSD density, CASPT2, CASPT2-K
   Simone Kossmann        : Meta GGA functionals, TD-DFT gradient, OOMP2, MP2 Hessian
   Martin Krupicka        : Initial AUTO-CI
   Lucas Lang             : DCDCAS
   Marvin Lechner         : AUTO-CI (C++ implementation), FIC-MRCC
   Dagmar Lenk            : GEPOL surface, SMD
   Dimitrios Liakos       : Extrapolation schemes; Compound Job, initial MDCI parallelization
   Dimitrios Manganas     : Further ROCIS development; embedding schemes
   Dimitrios Pantazis     : SARC Basis sets
   Anastasios Papadopoulos: AUTO-CI, single reference methods and gradients
   Taras Petrenko         : DFT Hessian,TD-DFT gradient, ASA, ECA, R-Raman, ABS, FL, XAS/XES, NRVS
   Peter Pinski           : DLPNO-MP2, DLPNO-MP2 Gradient
   Christoph Reimann      : Effective Core Potentials
   Marius Retegan         : Local ZFS, SOC
   Christoph Riplinger    : Optimizer, TS searches, QM/MM, DLPNO-CCSD(T), (RO)-DLPNO pert. Triples
   Tobias Risthaus        : Range-separated hybrids, TD-DFT gradient, RPA, STAB
   Michael Roemelt        : Original ROCIS implementation
   Masaaki Saitow         : Open-shell DLPNO-CCSD energy and density
   Barbara Sandhoefer     : DKH picture change effects
   Avijit Sen             : IP-ROCIS
   Kantharuban Sivalingam : CASSCF convergence, NEVPT2, FIC-MRCI
   Bernardo de Souza      : ESD, SOC TD-DFT
   Georgi Stoychev        : AutoAux, RI-MP2 NMR, DLPNO-MP2 response
   Willem Van den Heuvel  : Paramagnetic NMR
   Boris Wezisla          : Elementary symmetry handling
   Frank Wennmohs         : Technical directorship


 We gratefully acknowledge several colleagues who have allowed us to
 interface, adapt or use parts of their codes:
   Stefan Grimme, W. Hujo, H. Kruse, P. Pracht,  : VdW corrections, initial TS optimization,
                  C. Bannwarth, S. Ehlert          DFT functionals, gCP, sTDA/sTD-DF
   Ed Valeev, F. Pavosevic, A. Kumar             : LibInt (2-el integral package), F12 methods
   Garnet Chan, S. Sharma, J. Yang, R. Olivares  : DMRG
   Ulf Ekstrom                                   : XCFun DFT Library
   Mihaly Kallay                                 : mrcc  (arbitrary order and MRCC methods)
   Jiri Pittner, Ondrej Demel                    : Mk-CCSD
   Frank Weinhold                                : gennbo (NPA and NBO analysis)
   Christopher J. Cramer and Donald G. Truhlar   : smd solvation model
   Lars Goerigk                                  : TD-DFT with DH, B97 family of functionals
   V. Asgeirsson, H. Jonsson                     : NEB implementation
   FAccTs GmbH                                   : IRC, NEB, NEB-TS, DLPNO-Multilevel, CI-OPT
                                                   MM, QMMM, 2- and 3-layer-ONIOM, Crystal-QMMM,
                                                   LR-CPCM, SF, NACMEs, symmetry and pop. for TD-DFT,
                                                   nearIR, NL-DFT gradient (VV10), updates on ESD,
                                                   ML-optimized integration grids
   S Lehtola, MJT Oliveira, MAL Marques          : LibXC Library
   Liviu Ungur et al                             : ANISO software


 Your calculation uses the libint2 library for the computation of 2-el integrals
 For citations please refer to: http://libint.valeyev.net

 Your ORCA version has been built with support for libXC version: 5.1.0
 For citations please refer to: https://tddft.org/programs/libxc/

 This ORCA versions uses:
   CBLAS   interface :  Fast vector & matrix operations
   LAPACKE interface :  Fast linear algebra routines
   SCALAPACK package :  Parallel linear algebra routines
   Shared memory     :  Shared parallel matrices
   BLAS/LAPACK       :  OpenBLAS 0.3.15  USE64BITINT DYNAMIC_ARCH NO_AFFINITY SkylakeX SINGLE_THREADED
        Core in use  :  SkylakeX
   Copyright (c) 2011-2014, The OpenBLAS Project


================================================================================

----- Orbital basis set information -----
Your calculation utilizes the basis: def2-SVP
   F. Weigend and R. Ahlrichs, Phys. Chem. Chem. Phys. 7, 3297 (2005).

The basis set includes element-specific modifications.

Your calculation utilizes the basis: aug-cc-pVTZ 
    H, B-Ne : Obtained from the ccRepo (grant-hill.group.shef.ac.uk/ccrepo) Feb. 2017
              R. A. Kendall, T. H. Dunning, Jr., R. J. Harrison, J. Chem. Phys. 96, 6796 (1992)
         He : Obtained from the ccRepo (grant-hill.group.shef.ac.uk/ccrepo) Feb. 2017
              D. E. Woon, T. H. Dunning, Jr., J. Chem. Phys. 100, 2975 (1994)
  Li-Be, Na : Obtained from the ccRepo (grant-hill.group.shef.ac.uk/ccrepo) Feb. 2017
              B. P. Prascher, D. E. Woon, K. A. Peterson, T. H. Dunning, Jr., A. K. Wilson, Theor. Chem. Acc. 128, 69 (2011)
         Mg : Obtained from the Peterson Research Group Website (tyr0.chem.wsu.edu/~kipeters) Feb. 2017
              B. P. Prascher, D. E. Woon, K. A. Peterson, T. H. Dunning, Jr., A. K. Wilson, Theor. Chem. Acc. 128, 69 (2011)
      Al-Ar : Obtained from the ccRepo (grant-hill.group.shef.ac.uk/ccrepo) Feb. 2017
              D. E. Woon, T. H. Dunning, Jr., J. Chem. Phys. 98, 1358 (1993)
      Sc-Zn : Obtained from the ccRepo (grant-hill.group.shef.ac.uk/ccrepo) Feb. 2017
              N. B. Balabanov, K. A. Peterson, J. Chem. Phys. 123, 064107 (2005)
              N. B. Balabanov, K. A. Peterson, J. Chem. Phys. 125, 074110 (2006)
      Ga-Kr : Obtained from the ccRepo (grant-hill.group.shef.ac.uk/ccrepo) Feb. 2017
              A. K. Wilson, D. E. Woon, K. A. Peterson, T. H. Dunning, Jr., J. Chem. Phys. 110, 7667 (1999)
     Ag, Au : Obtained from the Peterson Research Group Website (tyr0.chem.wsu.edu/~kipeters) Feb. 2017
              K. A. Peterson, C. Puzzarini, Theor. Chem. Acc. 114, 283 (2005)

Your calculation utilizes the basis: cc-pVTZ 
       H, B-Ne : Obtained from the ccRepo (grant-hill.group.shef.ac.uk/ccrepo) Feb. 2017
                 T. H. Dunning, Jr., J. Chem. Phys. 90, 1007 (1989)
            He : Obtained from the ccRepo (grant-hill.group.shef.ac.uk/ccrepo) Feb. 2017
                 D. E. Woon, T. H. Dunning, Jr., J. Chem. Phys. 100, 2975 (1994)
  Li-Be, Na-Mg : Obtained from the ccRepo (grant-hill.group.shef.ac.uk/ccrepo) Feb. 2017
                 B. P. Prascher, D. E. Woon, K. A. Peterson, T. H. Dunning, Jr., A. K. Wilson, Theor. Chem. Acc. 128, 69 (2011)
         Al-Ar : Obtained from the ccRepo (grant-hill.group.shef.ac.uk/ccrepo) Feb. 2017
                 D. E. Woon, T. H. Dunning, Jr., J. Chem. Phys. 98, 1358 (1993)
            Ca : Obtained from the Peterson Research Group Website (tyr0.chem.wsu.edu/~kipeters) Feb. 2017
                 J. Koput, K. A. Peterson, J. Phys. Chem. 106, 9595 (2002)
         Sc-Zn : Obtained from the ccRepo (grant-hill.group.shef.ac.uk/ccrepo) Feb. 2017
                 N. B. Balabanov, K. A. Peterson, J. Chem. Phys. 123, 064107 (2005)
                 N. B. Balabanov, K. A. Peterson, J. Chem. Phys. 125, 074110 (2006)
         Ga-Kr : Obtained from the ccRepo (grant-hill.group.shef.ac.uk/ccrepo) Feb. 2017
                 A. K. Wilson, D. E. Woon, K. A. Peterson, T. H. Dunning, Jr., J. Chem. Phys. 110, 7667 (1999)
             Y : Obtained from the ccRepo (grant-hill.group.shef.ac.uk/ccrepo) Feb. 2017
                 K. A. Peterson, D. Figgen, M. Dolg, H. Stoll, J. Chem. Phys. 126, 124101 (2007)
        Ag, Au : Obtained from the Peterson Research Group Website (tyr0.chem.wsu.edu/~kipeters) Feb. 2017
                 K. A. Peterson, C. Puzzarini, Theor. Chem. Acc. 114, 283 (2005)

----- AuxJ basis set information -----
Your calculation utilizes the auxiliary basis: def2/J
   F. Weigend, Phys. Chem. Chem. Phys. 8, 1057 (2006).

================================================================================
                                        WARNINGS
                       Please study these warnings very carefully!
================================================================================

WARNING: The globally-selected AuxJ basis set is optimized for use with ECPs
         Make sure a suitable alternative is explicitly given all heavy elements (Z>36)

INFO   : the flag for use of the SHARK integral package has been found!

================================================================================
                                       INPUT FILE
================================================================================
NAME = final054.orca.inp
|  1> ! NoMOPrint PrintBasis #MINIPRINT SMALLPRINT LARGEPRINT
|  2> ! ALLPOP XYZFILE
|  3> #! BP86 3-21G   TightSCF
|  4> ! ENGRAD
|  5> ! B3LYP NormalPNO PModel #DecontractAux
|  6> #! VerySlowConv 
|  7>  %maxcore 5000
|  8>  %scf  maxiter   500  end 
|  9> 
| 10> %pal
| 11>     nprocs 32
| 12> end
| 13> 
| 14> %basis
| 15>     NewGTO O    # New basis for oxygen
| 16>         "aug-cc-pVTZ"
| 17>     end
| 18>     NewGTO C    # New basis for carbon
| 19>         "aug-cc-pVTZ"
| 20>     end
| 21>     NewGTO H    # New basis for hydrogen
| 22>         "cc-pVTZ"
| 23>     end
| 24> end
| 25> 
| 26> * xyz 0   1
| 27>   C  11.04  10.58  12.35  #1
| 28>   H  10.01  10.59  12.5  #2
| 29>   H  11.36  11.53  12.81  #3
| 30>   C  11.41  10.51  10.89  #4
| 31>   H  12.39  10.89  10.8  #5
| 32>   H  11.51  9.45  10.6  #6
| 33>   C  10.32  11.3  10.01  #7
| 34>   H  10.16  12.36  10.34  #8
| 35>   H  9.41  10.81  10.2  #9
| 36>   C  10.69  11.45  8.58  #10
| 37>   H  11.55  12.12  8.47  #11
| 38>   H  9.94  11.94  7.96  #12
| 39>   O  11.13  10.24  7.92  #13
| 40>   H  10.43  9.62  7.71  #14
| 41>   O  11.71  9.53  13.15  #15
| 42>   H  11.61  9.68  14.09  #16
| 43>   O  8.73  8.41  7.96  #17
| 44>   H  9.07  7.66  7.43  #18
| 45>   H  8.26  9.05  7.45  #19
| 46>   O  12.48  6.92  13.27  #20
| 47>   H  12.27  7.84  13.03  #21
| 48>   H  12.75  6.44  12.51  #22
| 49>   O  13.46  9.37  8.77  #23
| 50>   H  12.77  9.91  8.32  #24
| 51>   H  14.04  9.9  9.32  #25
| 52>   O  14.35  11.11  13.54  #26
| 53>   H  14.9  11.66  12.98  #27
| 54>   H  14.09  10.4  12.99  #28
| 55>   O  8.85  13.79  11.73  #29
| 56>   H  8.6  13.61  12.6  #30
| 57>   H  8.37  14.6  11.48  #31
| 58>   O  13.67  13.12  10.4  #32
| 59>   H  12.78  13.35  10.32  #33
| 60>   H  14.06  13.45  11.22  #34
| 61>   O  12.86  6.66  8.37  #35
| 62>   H  13.28  7.49  8.8  #36
| 63>   H  13.41  6.22  7.7  #37
| 64>   O  8.34  13.35  5.9  #38
| 65>   H  8.13  12.48  6.24  #39
| 66>   H  9.24  13.45  5.63  #40
| 67>   O  12.36  11.19  15.87  #41
| 68>   H  13.06  11.29  15.19  #42
| 69>   H  12.7  10.4  16.37  #43
| 70>   O  6.51  12.57  10.13  #44
| 71>   H  5.72  12.86  10.49  #45
| 72>   H  7.18  13.13  10.57  #46
| 73>   O  10.34  5.82  14.55  #47
| 74>   H  10.47  5.53  15.43  #48
| 75>   H  11.16  6.2  14.16  #49
| 76>   O  15.92  8.08  8.73  #50
| 77>   H  15.07  8.54  8.73  #51
| 78>   H  16.54  8.72  9.11  #52
| 79>   O  12.38  12.05  5.24  #53
| 80>   H  12.97  12.45  4.62  #54
| 81>   H  12.93  11.86  6.01  #55
| 82>   O  11.32  14.69  9.96  #56
| 83>   H  11.03  14.92  9.06  #57
| 84>   H  10.5  14.58  10.42  #58
| 85>   O  9.34  7.1  10.39  #59
| 86>   H  8.97  6.27  10.17  #60
| 87>   H  9.5  7.59  9.54  #61
| 88>   O  13.92  6.54  15.71  #62
| 89>   H  13.97  7.35  16.25  #63
| 90>   H  13.44  6.86  14.89  #64
| 91>   O  15.2  10.95  10.08  #65
| 92>   H  14.74  11.77  10.17  #66
| 93>   H  16.11  11.19  10.1  #67
| 94>   O  15.37  13.52  12.53  #68
| 95>   H  16.03  14.11  12.21  #69
| 96>   H  15.27  13.85  13.43  #70
| 97>   O  11.87  5.49  10.68  #71
| 98>   H  11.24  6.2  10.78  #72
| 99>   H  12.45  5.77  9.92  #73
|100>   O  7.84  16  10.65  #74
|101>   H  8.39  16.68  10.99  #75
|102>   H  8.12  15.87  9.69  #76
|103>   O  7.89  13.96  14.21  #77
|104>   H  8.26  13.17  14.66  #78
|105>   H  6.98  13.98  14.49  #79
|106>   O  10.39  6.45  7.11  #80
|107>   H  11.18  6.83  7.52  #81
|108>   H  10.69  6.23  6.21  #82
|109>   O  12.9  15.86  11.74  #83
|110>   H  13.86  15.96  11.43  #84
|111>   H  12.41  15.46  10.97  #85
|112>   O  14.91  11.62  6.85  #86
|113>   H  14.81  11.14  7.7  #87
|114>   H  14.89  12.61  7.04  #88
|115>   O  7.27  10.54  6.48  #89
|116>   H  7.19  10.26  5.55  #90
|117>   H  6.46  10.96  6.73  #91
|118>   O  5.31  7.69  7.27  #92
|119>   H  6.2  7.78  7.6  #93
|120>   H  4.83  7.2  7.93  #94
|121>   Q  0.6645  8.47$  16.68$  13.47$
|122>   Q  0.6645  8.33$  15.69$  14.57$
|123>   Q  -1.3290  8.47$  16.44$  14.26$
|124>   Q  0.6645  0.43$  12.54$  6.23$
|125>   Q  0.6645  1.2$  13.79$  6.95$
|126>   Q  -1.3290  0.53$  13.38$  6.56$
|127>   Q  0.6645  2.42$  3.39$  5.04$
|128>   Q  0.6645  4$  3.95$  5.09$
|129>   Q  -1.3290  3.22$  3.69$  4.76$
|130>   Q  0.6645  15.47$  7.51$  4.8$
|131>   Q  0.6645  15.54$  9.07$  4.75$
|132>   Q  -1.3290  15.38$  8.3$  4.47$
|133>   Q  0.6645  5.27$  8.76$  1.31$
|134>   Q  0.6645  5.34$  10.28$  1.06$
|135>   Q  -1.3290  5.39$  9.47$  0.86$
|136>   Q  0.6645  7.69$  20.06$  6.25$
|137>   Q  0.6645  8.72$  20.49$  7.34$
|138>   Q  -1.3290  8.35$  20.49$  6.57$
|139>   Q  0.6645  0.99$  12.32$  9.98$
|140>   Q  0.6645  1.36$  11.25$  10.96$
|141>   Q  -1.3290  1.51$  11.78$  10.31$
|142>   Q  0.6645  19.35$  8.34$  14.18$
|143>   Q  0.6645  20.13$  9.56$  14.48$
|144>   Q  -1.3290  19.62$  9.09$  14$
|145>   Q  0.6645  16.02$  12.4$  4.17$
|146>   Q  0.6645  14.97$  13.59$  3.82$
|147>   Q  -1.3290  15.69$  13.23$  4.15$
|148>   Q  0.6645  14.62$  0.79$  15.11$
|149>   Q  0.6645  13.48$  1.68$  15.91$
|150>   Q  -1.3290  14.09$  1.48$  15.31$
|151>   Q  0.6645  16.39$  10.11$  0.96$
|152>   Q  0.6645  16.94$  11.57$  0.5$
|153>   Q  -1.3290  16.45$  10.84$  0.46$
|154>   Q  0.6645  7.43$  2.24$  14.24$
|155>   Q  0.6645  8.39$  3.19$  13.71$
|156>   Q  -1.3290  7.81$  2.94$  14.24$
|157>   Q  0.6645  17.33$  14.22$  8.8$
|158>   Q  0.6645  18.82$  14.33$  8.38$
|159>   Q  -1.3290  18.08$  13.94$  8.47$
|160>   Q  0.6645  0.13$  9.17$  12.78$
|161>   Q  0.6645  1.45$  9.01$  12.11$
|162>   Q  -1.3290  0.67$  9.29$  12.18$
|163>   Q  0.6645  17.92$  3.84$  11.5$
|164>   Q  0.6645  17.55$  5.31$  11.54$
|165>   Q  -1.3290  17.8$  4.6$  11.19$
|166>   Q  0.6645  14.55$  13.05$  15.46$
|167>   Q  0.6645  13.78$  14.39$  15.26$
|168>   Q  -1.3290  14.42$  13.85$  15.16$
|169>   Q  0.6645  3.45$  14.41$  2.72$
|170>   Q  0.6645  3.49$  14.29$  4.21$
|171>   Q  -1.3290  3.13$  14.19$  3.46$
|172>   Q  0.6645  1.91$  4.96$  6.25$
|173>   Q  0.6645  3.31$  5.39$  6.57$
|174>   Q  -1.3290  2.49$  5.5$  6.5$
|175>   Q  0.6645  3.97$  9.25$  17.86$
|176>   Q  0.6645  2.54$  8.63$  18.05$
|177>   Q  -1.3290  3.16$  9.25$  18.11$
|178>   Q  0.6645  6.34$  15.75$  19.36$
|179>   Q  0.6645  5.94$  14.37$  18.9$
|180>   Q  -1.3290  5.81$  15.11$  19.26$
|181>   Q  0.6645  8.3$  17.32$  5.75$
|182>   Q  0.6645  9.56$  18$  5.38$
|183>   Q  -1.3290  8.9$  17.52$  5.23$
|184>   Q  0.6645  6$  12.66$  7.91$
|185>   Q  0.6645  5.28$  13.3$  6.69$
|186>   Q  -1.3290  5.55$  12.68$  7.19$
|187>   Q  0.6645  6.21$  10.72$  11.2$
|188>   Q  0.6645  6.64$  9.24$  11.51$
|189>   Q  -1.3290  6.1$  9.9$  11.47$
|190>   Q  0.6645  9.14$  10.62$  2.29$
|191>   Q  0.6645  8.41$  11.28$  1.12$
|192>   Q  -1.3290  8.48$  10.78$  1.81$
|193>   Q  0.6645  18.51$  14.62$  12.3$
|194>   Q  0.6645  18.22$  13.15$  11.86$
|195>   Q  -1.3290  18.38$  13.98$  11.75$
|196>   Q  0.6645  7.54$  8.71$  0.81$
|197>   Q  0.6645  8.28$  7.49$  1.36$
|198>   Q  -1.3290  7.97$  7.99$  0.76$
|199>   Q  0.6645  12.52$  3.75$  19.52$
|200>   Q  0.6645  12.61$  2.93$  18.29$
|201>   Q  -1.3290  12.53$  3.04$  19.08$
|202>   Q  0.6645  3.89$  11.49$  6.51$
|203>   Q  0.6645  3.12$  11.02$  5.26$
|204>   Q  -1.3290  3.34$  11.01$  6.08$
|205>   Q  0.6645  13.93$  13.59$  21.88$
|206>   Q  0.6645  14.97$  12.59$  22.13$
|207>   Q  -1.3290  14.56$  13.14$  21.65$
|208>   Q  0.6645  14.49$  4.06$  8.32$
|209>   Q  0.6645  14.58$  4.71$  7$
|210>   Q  -1.3290  14.16$  4.31$  7.59$
|211>   Q  0.6645  14.59$  3.6$  20.84$
|212>   Q  0.6645  15.84$  3.9$  19.96$
|213>   Q  -1.3290  15.02$  4.03$  20.26$
|214>   Q  0.6645  13.08$  10.15$  1.93$
|215>   Q  0.6645  12.96$  10.79$  0.53$
|216>   Q  -1.3290  13.15$  10.79$  1.35$
|217>   Q  0.6645  4.94$  18.75$  15.67$
|218>   Q  0.6645  6.31$  17.96$  15.82$
|219>   Q  -1.3290  5.45$  18.09$  15.71$
|220>   Q  0.6645  6.06$  19.31$  12.12$
|221>   Q  0.6645  6.88$  19.6$  13.35$
|222>   Q  -1.3290  6.37$  19.79$  12.71$
|223>   Q  0.6645  15.66$  7.1$  7.05$
|224>   Q  0.6645  16.4$  5.94$  6.39$
|225>   Q  -1.3290  15.81$  6.51$  6.45$
|226>   Q  0.6645  14.27$  21.09$  6.09$
|227>   Q  0.6645  14.43$  20.38$  7.58$
|228>   Q  -1.3290  14.53$  20.99$  6.95$
|229>   Q  0.6645  10.74$  19.79$  6.51$
|230>   Q  0.6645  12.03$  18.99$  6.28$
|231>   Q  -1.3290  11.2$  19.09$  6.36$
|232>   Q  0.6645  15.86$  9.07$  19.94$
|233>   Q  0.6645  14.57$  9.87$  19.82$
|234>   Q  -1.3290  15.12$  9.26$  19.62$
|235>   Q  0.6645  18.13$  16.8$  14.53$
|236>   Q  0.6645  17.79$  15.31$  14.74$
|237>   Q  -1.3290  18.18$  15.97$  14.38$
|238>   Q  0.6645  8.73$  3.37$  6.66$
|239>   Q  0.6645  7.94$  2.49$  5.66$
|240>   Q  -1.3290  8.34$  3.18$  5.93$
|241>   Q  0.6645  10.59$  -0.5$  11.48$
|242>   Q  0.6645  10.71$  0.98$  12.3$
|243>   Q  -1.3290  10.35$  0.29$  11.83$
|244>   Q  0.6645  11.41$  9.76$  3.07$
|245>   Q  0.6645  11.23$  10.85$  4.14$
|246>   Q  -1.3290  10.94$  10.34$  3.53$
|247>   Q  0.6645  11.47$  17.13$  7.04$
|248>   Q  0.6645  11.35$  15.61$  6.8$
|249>   Q  -1.3290  11.3$  16.31$  7.26$
|250>   Q  0.6645  1.91$  8.07$  14.19$
|251>   Q  0.6645  3.32$  7.37$  14.14$
|252>   Q  -1.3290  2.6$  7.72$  13.82$
|253>   Q  0.6645  9.55$  2.5$  4.79$
|254>   Q  0.6645  10.02$  1.16$  4.35$
|255>   Q  -1.3290  10.06$  1.98$  4.32$
|256>   Q  0.6645  10.46$  13.61$  2.17$
|257>   Q  0.6645  11.15$  12.21$  1.99$
|258>   Q  -1.3290  10.69$  12.92$  1.77$
|259>   Q  0.6645  13.54$  8.37$  3.4$
|260>   Q  0.6645  12.67$  7.84$  2.2$
|261>   Q  -1.3290  12.84$  8.33$  2.87$
|262>   Q  0.6645  11.54$  18.22$  2.67$
|263>   Q  0.6645  10.11$  18.46$  2.22$
|264>   Q  -1.3290  10.84$  18.68$  2.55$
|265>   Q  0.6645  17.47$  8.24$  2.18$
|266>   Q  0.6645  16.07$  8.42$  2.74$
|267>   Q  -1.3290  16.71$  8.55$  2.21$
|268>   Q  0.6645  5.05$  11.67$  20.06$
|269>   Q  0.6645  5.65$  10.49$  20.76$
|270>   Q  -1.3290  5.61$  11.07$  20.16$
|271>   Q  0.6645  17.21$  8.37$  16.46$
|272>   Q  0.6645  17.09$  9.03$  15.04$
|273>   Q  -1.3290  16.87$  8.88$  15.88$
|274>   Q  0.6645  14.06$  4.11$  13.19$
|275>   Q  0.6645  14.81$  3.4$  14.25$
|276>   Q  -1.3290  14.62$  4.06$  13.8$
|277>   Q  0.6645  5.1$  12.43$  0.83$
|278>   Q  0.6645  4.54$  12.16$  2.33$
|279>   Q  -1.3290  5.1$  12.12$  1.64$
|280>   Q  0.6645  18.75$  5.98$  7.04$
|281>   Q  0.6645  18.49$  6.98$  5.88$
|282>   Q  -1.3290  18.61$  6.21$  6.23$
|283>   Q  0.6645  10.16$  3.31$  8.4$
|284>   Q  0.6645  9.92$  4.82$  7.84$
|285>   Q  -1.3290  9.71$  4.02$  8.1$
|286>   Q  0.6645  11.8$  17.26$  16.95$
|287>   Q  0.6645  11.85$  17.12$  15.42$
|288>   Q  -1.3290  11.62$  17.46$  16.15$
|289>   Q  0.6645  10.79$  14.78$  4.58$
|290>   Q  0.6645  11.36$  13.69$  5.41$
|291>   Q  -1.3290  10.98$  14.4$  5.32$
|292>   Q  0.6645  9.59$  9.11$  22.01$
|293>   Q  0.6645  11.04$  8.67$  21.73$
|294>   Q  -1.3290  10.39$  9.21$  21.75$
|295>   Q  0.6645  20.56$  11.92$  10.18$
|296>   Q  0.6645  20.18$  13.37$  10.7$
|297>   Q  -1.3290  20.7$  12.74$  10.46$
|298>   Q  0.6645  5.16$  4.88$  12.14$
|299>   Q  0.6645  4.83$  3.82$  10.99$
|300>   Q  -1.3290  4.73$  4.29$  11.68$
|301>   Q  0.6645  10.3$  4.72$  1.25$
|302>   Q  0.6645  11.11$  3.5$  0.81$
|303>   Q  -1.3290  10.99$  4.32$  0.99$
|304>   Q  0.6645  14.83$  0.21$  11.77$
|305>   Q  0.6645  13.57$  1.15$  11.58$
|306>   Q  -1.3290  14.02$  0.42$  11.65$
|307>   Q  0.6645  16.9$  6.08$  17.45$
|308>   Q  0.6645  18.32$  6.41$  17.98$
|309>   Q  -1.3290  17.56$  6.59$  17.6$
|310>   Q  0.6645  2.97$  12.05$  13.25$
|311>   Q  0.6645  2.2$  13.37$  13.39$
|312>   Q  -1.3290  2.84$  12.82$  13.56$
|313>   Q  0.6645  14.57$  9.05$  17.68$
|314>   Q  0.6645  15.02$  8.96$  16.23$
|315>   Q  -1.3290  14.45$  9.07$  16.85$
|316>   Q  0.6645  4.4$  14.06$  14.36$
|317>   Q  0.6645  5$  14.88$  15.54$
|318>   Q  -1.3290  5.02$  14.47$  14.81$
|319>   Q  0.6645  14.09$  16.46$  16.93$
|320>   Q  0.6645  14.23$  17.08$  15.55$
|321>   Q  -1.3290  14.46$  16.89$  16.34$
|322>   Q  0.6645  8.53$  8.07$  16.43$
|323>   Q  0.6645  9.36$  7.28$  15.43$
|324>   Q  -1.3290  8.84$  7.88$  15.68$
|325>   Q  0.6645  9.42$  15.66$  7.61$
|326>   Q  0.6645  8.18$  14.88$  7.22$
|327>   Q  -1.3290  8.63$  15.38$  7.72$
|328>   Q  0.6645  7.18$  4.46$  10.39$
|329>   Q  0.6645  8.46$  4.29$  9.56$
|330>   Q  -1.3290  8.02$  4.38$  10.26$
|331>   Q  0.6645  9.01$  3.13$  18.79$
|332>   Q  0.6645  10.23$  3.48$  19.57$
|333>   Q  -1.3290  9.59$  2.98$  19.38$
|334>   Q  0.6645  20.94$  10.45$  7.48$
|335>   Q  0.6645  20.78$  9.44$  8.54$
|336>   Q  -1.3290  20.61$  10.18$  8.18$
|337>   Q  0.6645  8.36$  5.1$  17.75$
|338>   Q  0.6645  7.12$  4.56$  18.54$
|339>   Q  -1.3290  7.73$  5.11$  18.36$
|340>   Q  0.6645  18.34$  11.99$  9.25$
|341>   Q  0.6645  18.84$  10.55$  9.2$
|342>   Q  -1.3290  18.35$  11.18$  9.5$
|343>   Q  0.6645  11.8$  15.19$  15.03$
|344>   Q  0.6645  12.76$  15.31$  13.76$
|345>   Q  -1.3290  12.41$  15.56$  14.51$
|346>   Q  0.6645  8.24$  19.79$  15.02$
|347>   Q  0.6645  8.23$  18.19$  14.98$
|348>   Q  -1.3290  7.96$  18.98$  15.16$
|349>   Q  0.6645  12.62$  4.13$  5.56$
|350>   Q  0.6645  12.1$  3.07$  4.75$
|351>   Q  -1.3290  12.44$  3.78$  4.87$
|352>   Q  0.6645  8.08$  8.22$  13.67$
|353>   Q  0.6645  8.61$  7.84$  12.27$
|354>   Q  -1.3290  8.01$  7.99$  12.86$
|355>   Q  0.6645  18.39$  5.28$  9.44$
|356>   Q  0.6645  19.83$  5.77$  9.08$
|357>   Q  -1.3290  18.97$  5.69$  8.96$
|358>   Q  0.6645  12.47$  10.76$  19.99$
|359>   Q  0.6645  13.54$  11.59$  20.67$
|360>   Q  -1.3290  13.12$  10.89$  20.5$
|361>   Q  0.6645  7.29$  6.13$  12.75$
|362>   Q  0.6645  7.04$  4.97$  13.6$
|363>   Q  -1.3290  6.82$  5.57$  13.11$
|364>   Q  0.6645  14.84$  11.28$  17.34$
|365>   Q  0.6645  15.9$  12.44$  17.57$
|366>   Q  -1.3290  15.09$  12.09$  17.55$
|367>   Q  0.6645  18.11$  6.35$  14.2$
|368>   Q  0.6645  18.29$  6.63$  15.67$
|369>   Q  -1.3290  18.54$  6.63$  14.86$
|370>   Q  0.6645  11.52$  13.2$  18.47$
|371>   Q  0.6645  13.1$  12.73$  18.49$
|372>   Q  -1.3290  12.39$  13.13$  18.75$
|373>   Q  0.6645  3.1$  13$  10.71$
|374>   Q  0.6645  3.79$  13.9$  11.61$
|375>   Q  -1.3290  3.74$  13.47$  10.93$
|376>   Q  0.6645  20.14$  12.63$  3.03$
|377>   Q  0.6645  19.2$  12.64$  4.3$
|378>   Q  -1.3290  19.64$  12.29$  3.66$
|379>   Q  0.6645  4.56$  20.4$  10.14$
|380>   Q  0.6645  5.01$  18.95$  10.18$
|381>   Q  -1.3290  4.89$  19.69$  9.83$
|382>   Q  0.6645  9.24$  12.39$  19.47$
|383>   Q  0.6645  8.78$  12.73$  18.21$
|384>   Q  -1.3290  9.37$  12.51$  18.69$
|385>   Q  0.6645  5.18$  6.41$  2.61$
|386>   Q  0.6645  4.41$  7.49$  3.33$
|387>   Q  -1.3290  4.73$  7.13$  2.64$
|388>   Q  0.6645  13.72$  16.88$  6.75$
|389>   Q  0.6645  14.33$  17.9$  5.82$
|390>   Q  -1.3290  13.9$  17.65$  6.49$
|391>   Q  0.6645  6.85$  19.55$  3.01$
|392>   Q  0.6645  6.92$  18.15$  2.63$
|393>   Q  -1.3290  6.59$  18.78$  3.01$
|394>   Q  0.6645  3.35$  8.93$  9.92$
|395>   Q  0.6645  4.36$  8.7$  10.96$
|396>   Q  -1.3290  3.7$  8.51$  10.52$
|397>   Q  0.6645  7.85$  11.37$  15.54$
|398>   Q  0.6645  9.2$  10.86$  15.82$
|399>   Q  -1.3290  8.65$  11.47$  15.63$
|400>   Q  0.6645  10.25$  10.7$  18.79$
|401>   Q  0.6645  10.54$  9.75$  19.9$
|402>   Q  -1.3290  10.59$  10.01$  19.13$
|403>   Q  0.6645  14.02$  14.4$  8.15$
|404>   Q  0.6645  15.06$  15.03$  7.31$
|405>   Q  -1.3290  14.43$  14.54$  7.43$
|406>   Q  0.6645  17.01$  2$  15.24$
|407>   Q  0.6645  16.71$  3.46$  15.63$
|408>   Q  -1.3290  17.14$  2.87$  15.22$
|409>   Q  0.6645  19.03$  8.98$  4.89$
|410>   Q  0.6645  19.18$  9.22$  6.39$
|411>   Q  -1.3290  18.74$  9.01$  5.68$
|412>   Q  0.6645  2.25$  6.48$  12.2$
|413>   Q  0.6645  2.78$  5.44$  11.36$
|414>   Q  -1.3290  2.18$  5.94$  11.63$
|415>   Q  0.6645  13.6$  4.09$  3.23$
|416>   Q  0.6645  13.33$  4.45$  1.81$
|417>   Q  -1.3290  13.81$  4.25$  2.45$
|418>   Q  0.6645  12.02$  17.61$  11.79$
|419>   Q  0.6645  11.89$  19.04$  12.25$
|420>   Q  -1.3290  11.74$  18.41$  11.73$
|421>   Q  0.6645  5.45$  10.68$  15.02$
|422>   Q  0.6645  5.83$  10.5$  16.56$
|423>   Q  -1.3290  5.91$  10.79$  15.77$
|424>   Q  0.6645  5.49$  4.16$  2.04$
|425>   Q  0.6645  5.65$  5.38$  0.98$
|426>   Q  -1.3290  5.86$  4.84$  1.65$
|427>   Q  0.6645  17.66$  4.45$  5.48$
|428>   Q  0.6645  17.35$  2.96$  5.77$
|429>   Q  -1.3290  17.27$  3.8$  5.86$
|430>   Q  0.6645  0.44$  7.85$  7.08$
|431>   Q  0.6645  1.03$  8.53$  8.34$
|432>   Q  -1.3290  0.44$  8.1$  7.9$
|433>   Q  0.6645  14.43$  19.32$  13.05$
|434>   Q  0.6645  15.88$  18.75$  13.3$
|435>   Q  -1.3290  15.13$  18.85$  12.87$
|436>   Q  0.6645  10.29$  3.43$  16.48$
|437>   Q  0.6645  8.79$  3.44$  16.12$
|438>   Q  -1.3290  9.5$  3.74$  16.41$
|439>   Q  0.6645  15.99$  5.25$  2.67$
|440>   Q  0.6645  16.32$  4.77$  3.96$
|441>   Q  -1.3290  16.43$  5.27$  3.32$
|442>   Q  0.6645  16.49$  17.66$  16.58$
|443>   Q  0.6645  17.65$  18.66$  16.76$
|444>   Q  -1.3290  17.29$  17.96$  16.47$
|445>   Q  0.6645  15.17$  18.14$  11.08$
|446>   Q  0.6645  14.36$  18.25$  9.77$
|447>   Q  -1.3290  14.92$  17.89$  10.32$
|448>   Q  0.6645  8.24$  5.59$  2.64$
|449>   Q  0.6645  9.73$  6.16$  2.93$
|450>   Q  -1.3290  9.05$  5.85$  2.44$
|451>   Q  0.6645  16.83$  14.89$  10.67$
|452>   Q  0.6645  15.96$  15.93$  9.78$
|453>   Q  -1.3290  16.21$  15.14$  10.11$
|454>   Q  0.6645  4.79$  8.15$  5.46$
|455>   Q  0.6645  3.64$  9.11$  5.18$
|456>   Q  -1.3290  4.12$  8.46$  5.04$
|457>   Q  0.6645  11.79$  5.06$  17.5$
|458>   Q  0.6645  12.85$  5.32$  16.34$
|459>   Q  -1.3290  12.36$  4.87$  16.86$
|460>   Q  0.6645  8.35$  7.29$  18.33$
|461>   Q  0.6645  9.28$  8.46$  18.72$
|462>   Q  -1.3290  8.62$  8.09$  18.34$
|463>   Q  0.6645  4.26$  5.22$  17.6$
|464>   Q  0.6645  4.39$  5.69$  16.08$
|465>   Q  -1.3290  4.13$  5.22$  16.76$
|466>   Q  0.6645  19.97$  10.45$  16.7$
|467>   Q  0.6645  21.3$  11.02$  16.4$
|468>   Q  -1.3290  20.67$  10.53$  16.24$
|469>   Q  0.6645  15.7$  17.9$  4.06$
|470>   Q  0.6645  14.93$  19.23$  3.72$
|471>   Q  -1.3290  15.04$  18.44$  4.04$
|472>   Q  0.6645  17.35$  10.28$  20.75$
|473>   Q  0.6645  18.45$  9.21$  20.5$
|474>   Q  -1.3290  17.81$  9.71$  20.26$
|475>   Q  0.6645  9.94$  14.96$  17.01$
|476>   Q  0.6645  8.98$  16.12$  16.5$
|477>   Q  -1.3290  9.19$  15.38$  16.87$
|478>   Q  0.6645  12.47$  1.85$  14.07$
|479>   Q  0.6645  11.27$  2.73$  13.41$
|480>   Q  -1.3290  11.69$  2$  13.72$
|481>   Q  0.6645  12.25$  18.94$  9.81$
|482>   Q  0.6645  12.69$  18.41$  8.47$
|483>   Q  -1.3290  12.65$  18.99$  9.08$
|484>   Q  0.6645  11.57$  7.04$  4.16$
|485>   Q  0.6645  11.68$  5.46$  4.12$
|486>   Q  -1.3290  11.28$  6.23$  4.1$
|487>   Q  0.6645  2.89$  12.36$  3.58$
|488>   Q  0.6645  2.25$  10.91$  3.34$
|489>   Q  -1.3290  2.87$  11.5$  3.49$
|490>   Q  0.6645  5.22$  9.89$  3.7$
|491>   Q  0.6645  6.42$  10.61$  3.15$
|492>   Q  -1.3290  6.01$  10.1$  3.69$
|493>   Q  0.6645  5.44$  3.69$  9.15$
|494>   Q  0.6645  5.01$  5.22$  9.12$
|495>   Q  -1.3290  5.52$  4.53$  9.13$
|496>   Q  0.6645  14.29$  7.71$  20.22$
|497>   Q  0.6645  14.29$  6.12$  20$
|498>   Q  -1.3290  14.03$  6.87$  20.31$
|499>   Q  0.6645  5.69$  4.68$  7.11$
|500>   Q  0.6645  5.54$  5.23$  5.88$
|501>   Q  -1.3290  5.31$  4.7$  6.41$
|502>   Q  0.6645  11.1$  15.99$  3.02$
|503>   Q  0.6645  9.76$  15.62$  2.43$
|504>   Q  -1.3290  10.49$  15.47$  2.82$
|505>   Q  0.6645  7.75$  4.98$  5.21$
|506>   Q  0.6645  8$  6.47$  4.82$
|507>   Q  -1.3290  7.55$  5.77$  5$
|508>   Q  0.6645  9.08$  18.95$  16.97$
|509>   Q  0.6645  9.75$  19.4$  18.25$
|510>   Q  -1.3290  9.24$  18.92$  17.79$
|511>   Q  0.6645  5.77$  16.96$  10.53$
|512>   Q  0.6645  4.52$  16.91$  11.53$
|513>   Q  -1.3290  5.11$  17.26$  10.99$
|514>   Q  0.6645  3.66$  17.34$  6.5$
|515>   Q  0.6645  3.76$  17.39$  4.94$
|516>   Q  -1.3290  4.05$  17.33$  5.76$
|517>   Q  0.6645  18.55$  7.28$  9.9$
|518>   Q  0.6645  19.39$  7.83$  10.89$
|519>   Q  -1.3290  18.65$  7.75$  10.54$
|520>   Q  0.6645  12.75$  2.7$  8.33$
|521>   Q  0.6645  12.3$  2.35$  9.67$
|522>   Q  -1.3290  12.18$  2.45$  8.85$
|523>   Q  0.6645  16.68$  19.03$  9.76$
|524>   Q  0.6645  17.59$  19.35$  8.57$
|525>   Q  -1.3290  17.23$  19.45$  9.35$
|526>   Q  0.6645  13.34$  12.76$  2.32$
|527>   Q  0.6645  13.24$  14.33$  2.7$
|528>   Q  -1.3290  13.4$  13.5$  2.79$
|529>   Q  0.6645  16.87$  16.3$  4.77$
|530>   Q  0.6645  17.43$  16.28$  3.33$
|531>   Q  -1.3290  17.09$  16.64$  4.03$
|532>   Q  0.6645  12.68$  6.72$  0.05$
|533>   Q  0.6645  11.63$  6.15$  0.89$
|534>   Q  -1.3290  11.96$  6.74$  0.43$
|535>   Q  0.6645  16.56$  9.74$  12.4$
|536>   Q  0.6645  17.28$  8.5$  11.9$
|537>   Q  -1.3290  16.67$  8.88$  12.34$
|538>   Q  0.6645  16.01$  5.47$  13.56$
|539>   Q  0.6645  16.31$  6.94$  13.04$
|540>   Q  -1.3290  16.47$  6.11$  13.24$
|541>   Q  0.6645  11.64$  19.51$  15.87$
|542>   Q  0.6645  11.77$  20.78$  16.77$
|543>   Q  -1.3290  11.8$  20.33$  16.04$
|544>   Q  0.6645  7.48$  14$  17.04$
|545>   Q  0.6645  6.42$  12.94$  16.86$
|546>   Q  -1.3290  6.92$  13.42$  17.3$
|547>   Q  0.6645  11.15$  1.52$  15.86$
|548>   Q  0.6645  11.44$  1.42$  17.44$
|549>   Q  -1.3290  11.41$  1.8$  16.67$
|550>   Q  0.6645  18.21$  10.35$  18.39$
|551>   Q  0.6645  17.85$  10.42$  16.89$
|552>   Q  -1.3290  18.31$  10.61$  17.58$
|553>   Q  0.6645  4.53$  15.54$  13.24$
|554>   Q  0.6645  3.17$  16.22$  13.06$
|555>   Q  -1.3290  3.82$  15.72$  12.84$
|556>   Q  0.6645  16.3$  3.68$  10.32$
|557>   Q  0.6645  15.68$  2.71$  9.26$
|558>   Q  -1.3290  15.7$  3.4$  9.79$
|559>   Q  0.6645  11.74$  13.55$  22.26$
|560>   Q  0.6645  12.12$  13.58$  20.74$
|561>   Q  -1.3290  12.04$  13.91$  21.52$
|562>   Q  0.6645  8.33$  5.52$  20.07$
|563>   Q  0.6645  8.68$  6.49$  21.29$
|564>   Q  -1.3290  8.8$  5.84$  20.74$
|565>   Q  0.6645  11.86$  20.72$  8.42$
|566>   Q  0.6645  11.5$  22.17$  8.22$
|567>   Q  -1.3290  11.37$  21.36$  8.19$
|568>   Q  0.6645  17.45$  15.82$  7.27$
|569>   Q  0.6645  16.79$  17.32$  6.99$
|570>   Q  -1.3290  16.84$  16.46$  7.24$
|571>   Q  0.6645  3.87$  14.05$  8.24$
|572>   Q  0.6645  2.84$  14.76$  9.23$
|573>   Q  -1.3290  3.16$  14.52$  8.43$
|574>   Q  0.6645  7.63$  15.31$  3.19$
|575>   Q  0.6645  8.04$  16.75$  3.58$
|576>   Q  -1.3290  7.75$  16.13$  3.03$
|577>   Q  0.6645  3.72$  9.62$  13.59$
|578>   Q  0.6645  4.99$  10.07$  12.92$
|579>   Q  -1.3290  4.46$  10.04$  13.58$
|580>   Q  0.6645  9.08$  9.11$  4.15$
|581>   Q  0.6645  7.75$  8.72$  4.12$
|582>   Q  -1.3290  8.53$  8.55$  4.24$
|583>   Q  0.6645  14.05$  2.93$  10.82$
|584>   Q  0.6645  12.71$  3.67$  11.08$
|585>   Q  -1.3290  13.26$  3.04$  11.14$
|586>   Q  0.6645  2.26$  10.38$  9.01$
|587>   Q  0.6645  2.66$  9.84$  7.71$
|588>   Q  -1.3290  2.43$  9.77$  8.5$
|589>   Q  0.6645  18.42$  10.54$  12.88$
|590>   Q  0.6645  18.21$  11.04$  11.39$
|591>   Q  -1.3290  18.12$  11.06$  12.25$
|592>   Q  0.6645  8.03$  20.59$  9.31$
|593>   Q  0.6645  9.59$  20.67$  9$
|594>   Q  -1.3290  8.84$  20.3$  9.22$
|595>   Q  0.6645  9.84$  18.4$  11.63$
|596>   Q  0.6645  8.53$  18.98$  11.06$
|597>   Q  -1.3290  8.98$  18.51$  11.6$
|598>   Q  0.6645  13.73$  16.53$  19.22$
|599>   Q  0.6645  12.87$  15.39$  18.74$
|600>   Q  -1.3290  13.07$  16.21$  18.79$
|601>   Q  0.6645  11.42$  12.98$  15.87$
|602>   Q  0.6645  10.01$  13.55$  15.6$
|603>   Q  -1.3290  10.85$  13.57$  15.69$
|604>   Q  0.6645  9.77$  4.52$  13.6$
|605>   Q  0.6645  9.3$  4.22$  12.16$
|606>   Q  -1.3290  9.62$  3.99$  12.91$
|607>   Q  0.6645  13.16$  16.42$  1.71$
|608>   Q  0.6645  13.89$  17.09$  2.94$
|609>   Q  -1.3290  13.31$  16.59$  2.54$
|610>   Q  0.6645  7.21$  12.19$  20.62$
|611>   Q  0.6645  7.74$  13.61$  21.19$
|612>   Q  -1.3290  7.73$  12.75$  21.02$
|613>   Q  0.6645  17.78$  12.62$  18.67$
|614>   Q  0.6645  16.48$  12.61$  19.5$
|615>   Q  -1.3290  17.1$  12.95$  19.04$
|616>   Q  0.6645  17.48$  13.95$  4.99$
|617>   Q  0.6645  18.08$  13.64$  6.28$
|618>   Q  -1.3290  18.08$  13.96$  5.54$
|619>   Q  0.6645  7.58$  13.07$  4.13$
|620>   Q  0.6645  6.58$  13.11$  2.82$
|621>   Q  -1.3290  7.06$  13.38$  3.5$
|622>   Q  0.6645  5.64$  14.42$  4.72$
|623>   Q  0.6645  4.94$  15.56$  5.47$
|624>   Q  -1.3290  5.11$  14.74$  5.28$
|625>   Q  0.6645  14.98$  5.19$  16.04$
|626>   Q  0.6645  14.91$  4.43$  17.42$
|627>   Q  -1.3290  15.31$  4.77$  16.73$
|628>   Q  0.6645  10.68$  5.4$  20.17$
|629>   Q  0.6645  12.04$  6.08$  19.67$
|630>   Q  -1.3290  11.37$  5.53$  19.65$
|631>   Q  0.6645  8.07$  15.86$  -0.29$
|632>   Q  0.6645  7.33$  15.62$  1.07$
|633>   Q  -1.3290  7.55$  15.46$  0.24$
|634>   Q  0.6645  16.19$  11.05$  5.66$
|635>   Q  0.6645  17.15$  10.13$  5.16$
|636>   Q  -1.3290  16.65$  10.75$  5.06$
|637>   Q  0.6645  17.37$  14.32$  16.76$
|638>   Q  0.6645  16.13$  14.48$  15.87$
|639>   Q  -1.3290  16.92$  14.25$  16.05$
|640>   Q  0.6645  5.54$  6.22$  14.23$
|641>   Q  0.6645  5.18$  7.46$  14.92$
|642>   Q  -1.3290  4.99$  6.73$  14.62$
|643>   Q  0.6645  5.31$  18.96$  6.26$
|644>   Q  0.6645  5.65$  19.44$  7.66$
|645>   Q  -1.3290  5.79$  19.36$  6.86$
|646>   Q  0.6645  5.91$  9.93$  18.62$
|647>   Q  0.6645  6.61$  8.76$  17.91$
|648>   Q  -1.3290  6$  9.3$  18.03$
|649>   Q  0.6645  2.87$  6.14$  8.37$
|650>   Q  0.6645  3.46$  6.82$  9.86$
|651>   Q  -1.3290  3.39$  6.28$  9.1$
|652>   Q  0.6645  2.77$  13.44$  15.66$
|653>   Q  0.6645  2.86$  14.55$  16.58$
|654>   Q  -1.3290  2.74$  13.76$  16.42$
|655> *
|656> 
|657>                          ****END OF INPUT****
================================================================================

                     *******************************
                     * Energy+Gradient Calculation *
                     *******************************

---------------------------------
CARTESIAN COORDINATES (ANGSTROEM)
---------------------------------
  C     11.040000   10.580000   12.350000
  H     10.010000   10.590000   12.500000
  H     11.360000   11.530000   12.810000
  C     11.410000   10.510000   10.890000
  H     12.390000   10.890000   10.800000
  H     11.510000    9.450000   10.600000
  C     10.320000   11.300000   10.010000
  H     10.160000   12.360000   10.340000
  H      9.410000   10.810000   10.200000
  C     10.690000   11.450000    8.580000
  H     11.550000   12.120000    8.470000
  H      9.940000   11.940000    7.960000
  O     11.130000   10.240000    7.920000
  H     10.430000    9.620000    7.710000
  O     11.710000    9.530000   13.150000
  H     11.610000    9.680000   14.090000
  O      8.730000    8.410000    7.960000
  H      9.070000    7.660000    7.430000
  H      8.260000    9.050000    7.450000
  O     12.480000    6.920000   13.270000
  H     12.270000    7.840000   13.030000
  H     12.750000    6.440000   12.510000
  O     13.460000    9.370000    8.770000
  H     12.770000    9.910000    8.320000
  H     14.040000    9.900000    9.320000
  O     14.350000   11.110000   13.540000
  H     14.900000   11.660000   12.980000
  H     14.090000   10.400000   12.990000
  O      8.850000   13.790000   11.730000
  H      8.600000   13.610000   12.600000
  H      8.370000   14.600000   11.480000
  O     13.670000   13.120000   10.400000
  H     12.780000   13.350000   10.320000
  H     14.060000   13.450000   11.220000
  O     12.860000    6.660000    8.370000
  H     13.280000    7.490000    8.800000
  H     13.410000    6.220000    7.700000
  O      8.340000   13.350000    5.900000
  H      8.130000   12.480000    6.240000
  H      9.240000   13.450000    5.630000
  O     12.360000   11.190000   15.870000
  H     13.060000   11.290000   15.190000
  H     12.700000   10.400000   16.370000
  O      6.510000   12.570000   10.130000
  H      5.720000   12.860000   10.490000
  H      7.180000   13.130000   10.570000
  O     10.340000    5.820000   14.550000
  H     10.470000    5.530000   15.430000
  H     11.160000    6.200000   14.160000
  O     15.920000    8.080000    8.730000
  H     15.070000    8.540000    8.730000
  H     16.540000    8.720000    9.110000
  O     12.380000   12.050000    5.240000
  H     12.970000   12.450000    4.620000
  H     12.930000   11.860000    6.010000
  O     11.320000   14.690000    9.960000
  H     11.030000   14.920000    9.060000
  H     10.500000   14.580000   10.420000
  O      9.340000    7.100000   10.390000
  H      8.970000    6.270000   10.170000
  H      9.500000    7.590000    9.540000
  O     13.920000    6.540000   15.710000
  H     13.970000    7.350000   16.250000
  H     13.440000    6.860000   14.890000
  O     15.200000   10.950000   10.080000
  H     14.740000   11.770000   10.170000
  H     16.110000   11.190000   10.100000
  O     15.370000   13.520000   12.530000
  H     16.030000   14.110000   12.210000
  H     15.270000   13.850000   13.430000
  O     11.870000    5.490000   10.680000
  H     11.240000    6.200000   10.780000
  H     12.450000    5.770000    9.920000
  O      7.840000   16.000000   10.650000
  H      8.390000   16.680000   10.990000
  H      8.120000   15.870000    9.690000
  O      7.890000   13.960000   14.210000
  H      8.260000   13.170000   14.660000
  H      6.980000   13.980000   14.490000
  O     10.390000    6.450000    7.110000
  H     11.180000    6.830000    7.520000
  H     10.690000    6.230000    6.210000
  O     12.900000   15.860000   11.740000
  H     13.860000   15.960000   11.430000
  H     12.410000   15.460000   10.970000
  O     14.910000   11.620000    6.850000
  H     14.810000   11.140000    7.700000
  H     14.890000   12.610000    7.040000
  O      7.270000   10.540000    6.480000
  H      7.190000   10.260000    5.550000
  H      6.460000   10.960000    6.730000
  O      5.310000    7.690000    7.270000
  H      6.200000    7.780000    7.600000
  H      4.830000    7.200000    7.930000
  Q      8.470000   16.680000   13.470000
  Q      8.330000   15.690000   14.570000
  Q      8.470000   16.440000   14.260000
  Q      0.430000   12.540000    6.230000
  Q      1.200000   13.790000    6.950000
  Q      0.530000   13.380000    6.560000
  Q      2.420000    3.390000    5.040000
  Q      4.000000    3.950000    5.090000
  Q      3.220000    3.690000    4.760000
  Q     15.470000    7.510000    4.800000
  Q     15.540000    9.070000    4.750000
  Q     15.380000    8.300000    4.470000
  Q      5.270000    8.760000    1.310000
  Q      5.340000   10.280000    1.060000
  Q      5.390000    9.470000    0.860000
  Q      7.690000   20.060000    6.250000
  Q      8.720000   20.490000    7.340000
  Q      8.350000   20.490000    6.570000
  Q      0.990000   12.320000    9.980000
  Q      1.360000   11.250000   10.960000
  Q      1.510000   11.780000   10.310000
  Q     19.350000    8.340000   14.180000
  Q     20.130000    9.560000   14.480000
  Q     19.620000    9.090000   14.000000
  Q     16.020000   12.400000    4.170000
  Q     14.970000   13.590000    3.820000
  Q     15.690000   13.230000    4.150000
  Q     14.620000    0.790000   15.110000
  Q     13.480000    1.680000   15.910000
  Q     14.090000    1.480000   15.310000
  Q     16.390000   10.110000    0.960000
  Q     16.940000   11.570000    0.500000
  Q     16.450000   10.840000    0.460000
  Q      7.430000    2.240000   14.240000
  Q      8.390000    3.190000   13.710000
  Q      7.810000    2.940000   14.240000
  Q     17.330000   14.220000    8.800000
  Q     18.820000   14.330000    8.380000
  Q     18.080000   13.940000    8.470000
  Q      0.130000    9.170000   12.780000
  Q      1.450000    9.010000   12.110000
  Q      0.670000    9.290000   12.180000
  Q     17.920000    3.840000   11.500000
  Q     17.550000    5.310000   11.540000
  Q     17.800000    4.600000   11.190000
  Q     14.550000   13.050000   15.460000
  Q     13.780000   14.390000   15.260000
  Q     14.420000   13.850000   15.160000
  Q      3.450000   14.410000    2.720000
  Q      3.490000   14.290000    4.210000
  Q      3.130000   14.190000    3.460000
  Q      1.910000    4.960000    6.250000
  Q      3.310000    5.390000    6.570000
  Q      2.490000    5.500000    6.500000
  Q      3.970000    9.250000   17.860000
  Q      2.540000    8.630000   18.050000
  Q      3.160000    9.250000   18.110000
  Q      6.340000   15.750000   19.360000
  Q      5.940000   14.370000   18.900000
  Q      5.810000   15.110000   19.260000
  Q      8.300000   17.320000    5.750000
  Q      9.560000   18.000000    5.380000
  Q      8.900000   17.520000    5.230000
  Q      6.000000   12.660000    7.910000
  Q      5.280000   13.300000    6.690000
  Q      5.550000   12.680000    7.190000
  Q      6.210000   10.720000   11.200000
  Q      6.640000    9.240000   11.510000
  Q      6.100000    9.900000   11.470000
  Q      9.140000   10.620000    2.290000
  Q      8.410000   11.280000    1.120000
  Q      8.480000   10.780000    1.810000
  Q     18.510000   14.620000   12.300000
  Q     18.220000   13.150000   11.860000
  Q     18.380000   13.980000   11.750000
  Q      7.540000    8.710000    0.810000
  Q      8.280000    7.490000    1.360000
  Q      7.970000    7.990000    0.760000
  Q     12.520000    3.750000   19.520000
  Q     12.610000    2.930000   18.290000
  Q     12.530000    3.040000   19.080000
  Q      3.890000   11.490000    6.510000
  Q      3.120000   11.020000    5.260000
  Q      3.340000   11.010000    6.080000
  Q     13.930000   13.590000   21.880000
  Q     14.970000   12.590000   22.130000
  Q     14.560000   13.140000   21.650000
  Q     14.490000    4.060000    8.320000
  Q     14.580000    4.710000    7.000000
  Q     14.160000    4.310000    7.590000
  Q     14.590000    3.600000   20.840000
  Q     15.840000    3.900000   19.960000
  Q     15.020000    4.030000   20.260000
  Q     13.080000   10.150000    1.930000
  Q     12.960000   10.790000    0.530000
  Q     13.150000   10.790000    1.350000
  Q      4.940000   18.750000   15.670000
  Q      6.310000   17.960000   15.820000
  Q      5.450000   18.090000   15.710000
  Q      6.060000   19.310000   12.120000
  Q      6.880000   19.600000   13.350000
  Q      6.370000   19.790000   12.710000
  Q     15.660000    7.100000    7.050000
  Q     16.400000    5.940000    6.390000
  Q     15.810000    6.510000    6.450000
  Q     14.270000   21.090000    6.090000
  Q     14.430000   20.380000    7.580000
  Q     14.530000   20.990000    6.950000
  Q     10.740000   19.790000    6.510000
  Q     12.030000   18.990000    6.280000
  Q     11.200000   19.090000    6.360000
  Q     15.860000    9.070000   19.940000
  Q     14.570000    9.870000   19.820000
  Q     15.120000    9.260000   19.620000
  Q     18.130000   16.800000   14.530000
  Q     17.790000   15.310000   14.740000
  Q     18.180000   15.970000   14.380000
  Q      8.730000    3.370000    6.660000
  Q      7.940000    2.490000    5.660000
  Q      8.340000    3.180000    5.930000
  Q     10.590000   -0.500000   11.480000
  Q     10.710000    0.980000   12.300000
  Q     10.350000    0.290000   11.830000
  Q     11.410000    9.760000    3.070000
  Q     11.230000   10.850000    4.140000
  Q     10.940000   10.340000    3.530000
  Q     11.470000   17.130000    7.040000
  Q     11.350000   15.610000    6.800000
  Q     11.300000   16.310000    7.260000
  Q      1.910000    8.070000   14.190000
  Q      3.320000    7.370000   14.140000
  Q      2.600000    7.720000   13.820000
  Q      9.550000    2.500000    4.790000
  Q     10.020000    1.160000    4.350000
  Q     10.060000    1.980000    4.320000
  Q     10.460000   13.610000    2.170000
  Q     11.150000   12.210000    1.990000
  Q     10.690000   12.920000    1.770000
  Q     13.540000    8.370000    3.400000
  Q     12.670000    7.840000    2.200000
  Q     12.840000    8.330000    2.870000
  Q     11.540000   18.220000    2.670000
  Q     10.110000   18.460000    2.220000
  Q     10.840000   18.680000    2.550000
  Q     17.470000    8.240000    2.180000
  Q     16.070000    8.420000    2.740000
  Q     16.710000    8.550000    2.210000
  Q      5.050000   11.670000   20.060000
  Q      5.650000   10.490000   20.760000
  Q      5.610000   11.070000   20.160000
  Q     17.210000    8.370000   16.460000
  Q     17.090000    9.030000   15.040000
  Q     16.870000    8.880000   15.880000
  Q     14.060000    4.110000   13.190000
  Q     14.810000    3.400000   14.250000
  Q     14.620000    4.060000   13.800000
  Q      5.100000   12.430000    0.830000
  Q      4.540000   12.160000    2.330000
  Q      5.100000   12.120000    1.640000
  Q     18.750000    5.980000    7.040000
  Q     18.490000    6.980000    5.880000
  Q     18.610000    6.210000    6.230000
  Q     10.160000    3.310000    8.400000
  Q      9.920000    4.820000    7.840000
  Q      9.710000    4.020000    8.100000
  Q     11.800000   17.260000   16.950000
  Q     11.850000   17.120000   15.420000
  Q     11.620000   17.460000   16.150000
  Q     10.790000   14.780000    4.580000
  Q     11.360000   13.690000    5.410000
  Q     10.980000   14.400000    5.320000
  Q      9.590000    9.110000   22.010000
  Q     11.040000    8.670000   21.730000
  Q     10.390000    9.210000   21.750000
  Q     20.560000   11.920000   10.180000
  Q     20.180000   13.370000   10.700000
  Q     20.700000   12.740000   10.460000
  Q      5.160000    4.880000   12.140000
  Q      4.830000    3.820000   10.990000
  Q      4.730000    4.290000   11.680000
  Q     10.300000    4.720000    1.250000
  Q     11.110000    3.500000    0.810000
  Q     10.990000    4.320000    0.990000
  Q     14.830000    0.210000   11.770000
  Q     13.570000    1.150000   11.580000
  Q     14.020000    0.420000   11.650000
  Q     16.900000    6.080000   17.450000
  Q     18.320000    6.410000   17.980000
  Q     17.560000    6.590000   17.600000
  Q      2.970000   12.050000   13.250000
  Q      2.200000   13.370000   13.390000
  Q      2.840000   12.820000   13.560000
  Q     14.570000    9.050000   17.680000
  Q     15.020000    8.960000   16.230000
  Q     14.450000    9.070000   16.850000
  Q      4.400000   14.060000   14.360000
  Q      5.000000   14.880000   15.540000
  Q      5.020000   14.470000   14.810000
  Q     14.090000   16.460000   16.930000
  Q     14.230000   17.080000   15.550000
  Q     14.460000   16.890000   16.340000
  Q      8.530000    8.070000   16.430000
  Q      9.360000    7.280000   15.430000
  Q      8.840000    7.880000   15.680000
  Q      9.420000   15.660000    7.610000
  Q      8.180000   14.880000    7.220000
  Q      8.630000   15.380000    7.720000
  Q      7.180000    4.460000   10.390000
  Q      8.460000    4.290000    9.560000
  Q      8.020000    4.380000   10.260000
  Q      9.010000    3.130000   18.790000
  Q     10.230000    3.480000   19.570000
  Q      9.590000    2.980000   19.380000
  Q     20.940000   10.450000    7.480000
  Q     20.780000    9.440000    8.540000
  Q     20.610000   10.180000    8.180000
  Q      8.360000    5.100000   17.750000
  Q      7.120000    4.560000   18.540000
  Q      7.730000    5.110000   18.360000
  Q     18.340000   11.990000    9.250000
  Q     18.840000   10.550000    9.200000
  Q     18.350000   11.180000    9.500000
  Q     11.800000   15.190000   15.030000
  Q     12.760000   15.310000   13.760000
  Q     12.410000   15.560000   14.510000
  Q      8.240000   19.790000   15.020000
  Q      8.230000   18.190000   14.980000
  Q      7.960000   18.980000   15.160000
  Q     12.620000    4.130000    5.560000
  Q     12.100000    3.070000    4.750000
  Q     12.440000    3.780000    4.870000
  Q      8.080000    8.220000   13.670000
  Q      8.610000    7.840000   12.270000
  Q      8.010000    7.990000   12.860000
  Q     18.390000    5.280000    9.440000
  Q     19.830000    5.770000    9.080000
  Q     18.970000    5.690000    8.960000
  Q     12.470000   10.760000   19.990000
  Q     13.540000   11.590000   20.670000
  Q     13.120000   10.890000   20.500000
  Q      7.290000    6.130000   12.750000
  Q      7.040000    4.970000   13.600000
  Q      6.820000    5.570000   13.110000
  Q     14.840000   11.280000   17.340000
  Q     15.900000   12.440000   17.570000
  Q     15.090000   12.090000   17.550000
  Q     18.110000    6.350000   14.200000
  Q     18.290000    6.630000   15.670000
  Q     18.540000    6.630000   14.860000
  Q     11.520000   13.200000   18.470000
  Q     13.100000   12.730000   18.490000
  Q     12.390000   13.130000   18.750000
  Q      3.100000   13.000000   10.710000
  Q      3.790000   13.900000   11.610000
  Q      3.740000   13.470000   10.930000
  Q     20.140000   12.630000    3.030000
  Q     19.200000   12.640000    4.300000
  Q     19.640000   12.290000    3.660000
  Q      4.560000   20.400000   10.140000
  Q      5.010000   18.950000   10.180000
  Q      4.890000   19.690000    9.830000
  Q      9.240000   12.390000   19.470000
  Q      8.780000   12.730000   18.210000
  Q      9.370000   12.510000   18.690000
  Q      5.180000    6.410000    2.610000
  Q      4.410000    7.490000    3.330000
  Q      4.730000    7.130000    2.640000
  Q     13.720000   16.880000    6.750000
  Q     14.330000   17.900000    5.820000
  Q     13.900000   17.650000    6.490000
  Q      6.850000   19.550000    3.010000
  Q      6.920000   18.150000    2.630000
  Q      6.590000   18.780000    3.010000
  Q      3.350000    8.930000    9.920000
  Q      4.360000    8.700000   10.960000
  Q      3.700000    8.510000   10.520000
  Q      7.850000   11.370000   15.540000
  Q      9.200000   10.860000   15.820000
  Q      8.650000   11.470000   15.630000
  Q     10.250000   10.700000   18.790000
  Q     10.540000    9.750000   19.900000
  Q     10.590000   10.010000   19.130000
  Q     14.020000   14.400000    8.150000
  Q     15.060000   15.030000    7.310000
  Q     14.430000   14.540000    7.430000
  Q     17.010000    2.000000   15.240000
  Q     16.710000    3.460000   15.630000
  Q     17.140000    2.870000   15.220000
  Q     19.030000    8.980000    4.890000
  Q     19.180000    9.220000    6.390000
  Q     18.740000    9.010000    5.680000
  Q      2.250000    6.480000   12.200000
  Q      2.780000    5.440000   11.360000
  Q      2.180000    5.940000   11.630000
  Q     13.600000    4.090000    3.230000
  Q     13.330000    4.450000    1.810000
  Q     13.810000    4.250000    2.450000
  Q     12.020000   17.610000   11.790000
  Q     11.890000   19.040000   12.250000
  Q     11.740000   18.410000   11.730000
  Q      5.450000   10.680000   15.020000
  Q      5.830000   10.500000   16.560000
  Q      5.910000   10.790000   15.770000
  Q      5.490000    4.160000    2.040000
  Q      5.650000    5.380000    0.980000
  Q      5.860000    4.840000    1.650000
  Q     17.660000    4.450000    5.480000
  Q     17.350000    2.960000    5.770000
  Q     17.270000    3.800000    5.860000
  Q      0.440000    7.850000    7.080000
  Q      1.030000    8.530000    8.340000
  Q      0.440000    8.100000    7.900000
  Q     14.430000   19.320000   13.050000
  Q     15.880000   18.750000   13.300000
  Q     15.130000   18.850000   12.870000
  Q     10.290000    3.430000   16.480000
  Q      8.790000    3.440000   16.120000
  Q      9.500000    3.740000   16.410000
  Q     15.990000    5.250000    2.670000
  Q     16.320000    4.770000    3.960000
  Q     16.430000    5.270000    3.320000
  Q     16.490000   17.660000   16.580000
  Q     17.650000   18.660000   16.760000
  Q     17.290000   17.960000   16.470000
  Q     15.170000   18.140000   11.080000
  Q     14.360000   18.250000    9.770000
  Q     14.920000   17.890000   10.320000
  Q      8.240000    5.590000    2.640000
  Q      9.730000    6.160000    2.930000
  Q      9.050000    5.850000    2.440000
  Q     16.830000   14.890000   10.670000
  Q     15.960000   15.930000    9.780000
  Q     16.210000   15.140000   10.110000
  Q      4.790000    8.150000    5.460000
  Q      3.640000    9.110000    5.180000
  Q      4.120000    8.460000    5.040000
  Q     11.790000    5.060000   17.500000
  Q     12.850000    5.320000   16.340000
  Q     12.360000    4.870000   16.860000
  Q      8.350000    7.290000   18.330000
  Q      9.280000    8.460000   18.720000
  Q      8.620000    8.090000   18.340000
  Q      4.260000    5.220000   17.600000
  Q      4.390000    5.690000   16.080000
  Q      4.130000    5.220000   16.760000
  Q     19.970000   10.450000   16.700000
  Q     21.300000   11.020000   16.400000
  Q     20.670000   10.530000   16.240000
  Q     15.700000   17.900000    4.060000
  Q     14.930000   19.230000    3.720000
  Q     15.040000   18.440000    4.040000
  Q     17.350000   10.280000   20.750000
  Q     18.450000    9.210000   20.500000
  Q     17.810000    9.710000   20.260000
  Q      9.940000   14.960000   17.010000
  Q      8.980000   16.120000   16.500000
  Q      9.190000   15.380000   16.870000
  Q     12.470000    1.850000   14.070000
  Q     11.270000    2.730000   13.410000
  Q     11.690000    2.000000   13.720000
  Q     12.250000   18.940000    9.810000
  Q     12.690000   18.410000    8.470000
  Q     12.650000   18.990000    9.080000
  Q     11.570000    7.040000    4.160000
  Q     11.680000    5.460000    4.120000
  Q     11.280000    6.230000    4.100000
  Q      2.890000   12.360000    3.580000
  Q      2.250000   10.910000    3.340000
  Q      2.870000   11.500000    3.490000
  Q      5.220000    9.890000    3.700000
  Q      6.420000   10.610000    3.150000
  Q      6.010000   10.100000    3.690000
  Q      5.440000    3.690000    9.150000
  Q      5.010000    5.220000    9.120000
  Q      5.520000    4.530000    9.130000
  Q     14.290000    7.710000   20.220000
  Q     14.290000    6.120000   20.000000
  Q     14.030000    6.870000   20.310000
  Q      5.690000    4.680000    7.110000
  Q      5.540000    5.230000    5.880000
  Q      5.310000    4.700000    6.410000
  Q     11.100000   15.990000    3.020000
  Q      9.760000   15.620000    2.430000
  Q     10.490000   15.470000    2.820000
  Q      7.750000    4.980000    5.210000
  Q      8.000000    6.470000    4.820000
  Q      7.550000    5.770000    5.000000
  Q      9.080000   18.950000   16.970000
  Q      9.750000   19.400000   18.250000
  Q      9.240000   18.920000   17.790000
  Q      5.770000   16.960000   10.530000
  Q      4.520000   16.910000   11.530000
  Q      5.110000   17.260000   10.990000
  Q      3.660000   17.340000    6.500000
  Q      3.760000   17.390000    4.940000
  Q      4.050000   17.330000    5.760000
  Q     18.550000    7.280000    9.900000
  Q     19.390000    7.830000   10.890000
  Q     18.650000    7.750000   10.540000
  Q     12.750000    2.700000    8.330000
  Q     12.300000    2.350000    9.670000
  Q     12.180000    2.450000    8.850000
  Q     16.680000   19.030000    9.760000
  Q     17.590000   19.350000    8.570000
  Q     17.230000   19.450000    9.350000
  Q     13.340000   12.760000    2.320000
  Q     13.240000   14.330000    2.700000
  Q     13.400000   13.500000    2.790000
  Q     16.870000   16.300000    4.770000
  Q     17.430000   16.280000    3.330000
  Q     17.090000   16.640000    4.030000
  Q     12.680000    6.720000    0.050000
  Q     11.630000    6.150000    0.890000
  Q     11.960000    6.740000    0.430000
  Q     16.560000    9.740000   12.400000
  Q     17.280000    8.500000   11.900000
  Q     16.670000    8.880000   12.340000
  Q     16.010000    5.470000   13.560000
  Q     16.310000    6.940000   13.040000
  Q     16.470000    6.110000   13.240000
  Q     11.640000   19.510000   15.870000
  Q     11.770000   20.780000   16.770000
  Q     11.800000   20.330000   16.040000
  Q      7.480000   14.000000   17.040000
  Q      6.420000   12.940000   16.860000
  Q      6.920000   13.420000   17.300000
  Q     11.150000    1.520000   15.860000
  Q     11.440000    1.420000   17.440000
  Q     11.410000    1.800000   16.670000
  Q     18.210000   10.350000   18.390000
  Q     17.850000   10.420000   16.890000
  Q     18.310000   10.610000   17.580000
  Q      4.530000   15.540000   13.240000
  Q      3.170000   16.220000   13.060000
  Q      3.820000   15.720000   12.840000
  Q     16.300000    3.680000   10.320000
  Q     15.680000    2.710000    9.260000
  Q     15.700000    3.400000    9.790000
  Q     11.740000   13.550000   22.260000
  Q     12.120000   13.580000   20.740000
  Q     12.040000   13.910000   21.520000
  Q      8.330000    5.520000   20.070000
  Q      8.680000    6.490000   21.290000
  Q      8.800000    5.840000   20.740000
  Q     11.860000   20.720000    8.420000
  Q     11.500000   22.170000    8.220000
  Q     11.370000   21.360000    8.190000
  Q     17.450000   15.820000    7.270000
  Q     16.790000   17.320000    6.990000
  Q     16.840000   16.460000    7.240000
  Q      3.870000   14.050000    8.240000
  Q      2.840000   14.760000    9.230000
  Q      3.160000   14.520000    8.430000
  Q      7.630000   15.310000    3.190000
  Q      8.040000   16.750000    3.580000
  Q      7.750000   16.130000    3.030000
  Q      3.720000    9.620000   13.590000
  Q      4.990000   10.070000   12.920000
  Q      4.460000   10.040000   13.580000
  Q      9.080000    9.110000    4.150000
  Q      7.750000    8.720000    4.120000
  Q      8.530000    8.550000    4.240000
  Q     14.050000    2.930000   10.820000
  Q     12.710000    3.670000   11.080000
  Q     13.260000    3.040000   11.140000
  Q      2.260000   10.380000    9.010000
  Q      2.660000    9.840000    7.710000
  Q      2.430000    9.770000    8.500000
  Q     18.420000   10.540000   12.880000
  Q     18.210000   11.040000   11.390000
  Q     18.120000   11.060000   12.250000
  Q      8.030000   20.590000    9.310000
  Q      9.590000   20.670000    9.000000
  Q      8.840000   20.300000    9.220000
  Q      9.840000   18.400000   11.630000
  Q      8.530000   18.980000   11.060000
  Q      8.980000   18.510000   11.600000
  Q     13.730000   16.530000   19.220000
  Q     12.870000   15.390000   18.740000
  Q     13.070000   16.210000   18.790000
  Q     11.420000   12.980000   15.870000
  Q     10.010000   13.550000   15.600000
  Q     10.850000   13.570000   15.690000
  Q      9.770000    4.520000   13.600000
  Q      9.300000    4.220000   12.160000
  Q      9.620000    3.990000   12.910000
  Q     13.160000   16.420000    1.710000
  Q     13.890000   17.090000    2.940000
  Q     13.310000   16.590000    2.540000
  Q      7.210000   12.190000   20.620000
  Q      7.740000   13.610000   21.190000
  Q      7.730000   12.750000   21.020000
  Q     17.780000   12.620000   18.670000
  Q     16.480000   12.610000   19.500000
  Q     17.100000   12.950000   19.040000
  Q     17.480000   13.950000    4.990000
  Q     18.080000   13.640000    6.280000
  Q     18.080000   13.960000    5.540000
  Q      7.580000   13.070000    4.130000
  Q      6.580000   13.110000    2.820000
  Q      7.060000   13.380000    3.500000
  Q      5.640000   14.420000    4.720000
  Q      4.940000   15.560000    5.470000
  Q      5.110000   14.740000    5.280000
  Q     14.980000    5.190000   16.040000
  Q     14.910000    4.430000   17.420000
  Q     15.310000    4.770000   16.730000
  Q     10.680000    5.400000   20.170000
  Q     12.040000    6.080000   19.670000
  Q     11.370000    5.530000   19.650000
  Q      8.070000   15.860000   -0.290000
  Q      7.330000   15.620000    1.070000
  Q      7.550000   15.460000    0.240000
  Q     16.190000   11.050000    5.660000
  Q     17.150000   10.130000    5.160000
  Q     16.650000   10.750000    5.060000
  Q     17.370000   14.320000   16.760000
  Q     16.130000   14.480000   15.870000
  Q     16.920000   14.250000   16.050000
  Q      5.540000    6.220000   14.230000
  Q      5.180000    7.460000   14.920000
  Q      4.990000    6.730000   14.620000
  Q      5.310000   18.960000    6.260000
  Q      5.650000   19.440000    7.660000
  Q      5.790000   19.360000    6.860000
  Q      5.910000    9.930000   18.620000
  Q      6.610000    8.760000   17.910000
  Q      6.000000    9.300000   18.030000
  Q      2.870000    6.140000    8.370000
  Q      3.460000    6.820000    9.860000
  Q      3.390000    6.280000    9.100000
  Q      2.770000   13.440000   15.660000
  Q      2.860000   14.550000   16.580000
  Q      2.740000   13.760000   16.420000

----------------------------
CARTESIAN COORDINATES (A.U.)
----------------------------
  NO LB      ZA    FRAG     MASS         X           Y           Z
   0 C     6.0000    0    12.011   20.862577   19.993302   23.338118
   1 H     1.0000    0     1.008   18.916159   20.012200   23.621577
   2 H     1.0000    0     1.008   21.467289   21.788542   24.207392
   3 C     6.0000    0    12.011   21.561775   19.861022   20.579118
   4 H     1.0000    0     1.008   23.413707   20.579118   20.409042
   5 H     1.0000    0     1.008   21.750748   17.857912   20.031097
   6 C     6.0000    0    12.011   19.501974   21.353905   18.916159
   7 H     1.0000    0     1.008   19.199618   23.357015   19.539768
   8 H     1.0000    0     1.008   17.782323   20.427940   19.275207
   9 C     6.0000    0    12.011   20.201172   21.637364   16.213850
  10 H     1.0000    0     1.008   21.826337   22.903481   16.005980
  11 H     1.0000    0     1.008   18.783878   22.563330   15.042220
  12 O     8.0000    0    15.999   21.032652   19.350796   14.966631
  13 H     1.0000    0     1.008   19.709844   18.179165   14.569788
  14 O     8.0000    0    15.999   22.128693   18.009090   24.849899
  15 H     1.0000    0     1.008   21.939720   18.292549   26.626241
  16 O     8.0000    0    15.999   16.497309   15.892597   15.042220
  17 H     1.0000    0     1.008   17.139816   14.475302   14.040665
  18 H     1.0000    0     1.008   15.609138   17.102022   14.078460
  19 O     8.0000    0    15.999   23.583782   13.076905   25.076666
  20 H     1.0000    0     1.008   23.186940   14.815453   24.623132
  21 H     1.0000    0     1.008   24.094008   12.169836   23.640474
  22 O     8.0000    0    15.999   25.435714   17.706734   16.572898
  23 H     1.0000    0     1.008   24.131803   18.727186   15.722521
  24 H     1.0000    0     1.008   26.531755   18.708289   17.612248
  25 O     8.0000    0    15.999   27.117570   20.994857   25.586892
  26 H     1.0000    0     1.008   28.156919   22.034207   24.528645
  27 H     1.0000    0     1.008   26.626241   19.653152   24.547542
  28 O     8.0000    0    15.999   16.724076   26.059323   22.166488
  29 H     1.0000    0     1.008   16.251645   25.719173   23.810549
  30 H     1.0000    0     1.008   15.817008   27.590002   21.694056
  31 O     8.0000    0    15.999   25.832556   24.793207   19.653152
  32 H     1.0000    0     1.008   24.150700   25.227844   19.501974
  33 H     1.0000    0     1.008   26.569549   25.416817   21.202727
  34 O     8.0000    0    15.999   24.301878   12.585576   15.817008
  35 H     1.0000    0     1.008   25.095563   14.154049   16.629590
  36 H     1.0000    0     1.008   25.341227   11.754097   14.550891
  37 O     8.0000    0    15.999   15.760316   25.227844   11.149384
  38 H     1.0000    0     1.008   15.363473   23.583782   11.791891
  39 H     1.0000    0     1.008   17.461069   25.416817   10.639158
  40 O     8.0000    0    15.999   23.357015   21.146035   29.989954
  41 H     1.0000    0     1.008   24.679823   21.335008   28.704940
  42 H     1.0000    0     1.008   23.999522   19.653152   30.934817
  43 O     8.0000    0    15.999   12.302117   23.753858   19.142926
  44 H     1.0000    0     1.008   10.809233   24.301878   19.823227
  45 H     1.0000    0     1.008   13.568234   24.812104   19.974405
  46 O     8.0000    0    15.999   19.539768   10.998206   27.495515
  47 H     1.0000    0     1.008   19.785433   10.450186   29.158474
  48 H     1.0000    0     1.008   21.089344   11.716302   26.758522
  49 O     8.0000    0    15.999   30.084440   15.268987   16.497309
  50 H     1.0000    0     1.008   28.478173   16.138261   16.497309
  51 H     1.0000    0     1.008   31.256070   16.478412   17.215405
  52 O     8.0000    0    15.999   23.394810   22.771200    9.902165
  53 H     1.0000    0     1.008   24.509748   23.527090    8.730535
  54 H     1.0000    0     1.008   24.434159   22.412152   11.357254
  55 O     8.0000    0    15.999   21.391700   27.760077   18.821672
  56 H     1.0000    0     1.008   20.843679   28.194714   17.120919
  57 H     1.0000    0     1.008   19.842124   27.552207   19.690946
  58 O     8.0000    0    15.999   17.650042   13.417056   19.634255
  59 H     1.0000    0     1.008   16.950843   11.848583   19.218515
  60 H     1.0000    0     1.008   17.952398   14.343021   18.027987
  61 O     8.0000    0    15.999   26.304988   12.358809   29.687598
  62 H     1.0000    0     1.008   26.399474   13.889487   30.708050
  63 H     1.0000    0     1.008   25.397919   12.963521   28.138022
  64 O     8.0000    0    15.999   28.723837   20.692501   19.048439
  65 H     1.0000    0     1.008   27.854563   22.242077   19.218515
  66 H     1.0000    0     1.008   30.443488   21.146035   19.086234
  67 O     8.0000    0    15.999   29.045091   25.549097   23.678268
  68 H     1.0000    0     1.008   30.292310   26.664036   23.073556
  69 H     1.0000    0     1.008   28.856118   26.172707   25.379022
  70 O     8.0000    0    15.999   22.431049   10.374596   20.182275
  71 H     1.0000    0     1.008   21.240522   11.716302   20.371248
  72 H     1.0000    0     1.008   23.527090   10.903720   18.746083
  73 O     8.0000    0    15.999   14.815453   30.235618   20.125583
  74 H     1.0000    0     1.008   15.854802   31.520632   20.768090
  75 H     1.0000    0     1.008   15.344576   29.989954   18.311446
  76 O     8.0000    0    15.999   14.909939   26.380577   26.853008
  77 H     1.0000    0     1.008   15.609138   24.887693   27.703385
  78 H     1.0000    0     1.008   13.190288   26.418371   27.382132
  79 O     8.0000    0    15.999   19.634255   12.188734   13.435953
  80 H     1.0000    0     1.008   21.127138   12.906829   14.210741
  81 H     1.0000    0     1.008   20.201172   11.772994   11.735199
  82 O     8.0000    0    15.999   24.377467   29.971056   22.185385
  83 H     1.0000    0     1.008   26.191604   30.160029   21.599570
  84 H     1.0000    0     1.008   23.451501   29.215166   20.730296
  85 O     8.0000    0    15.999   28.175817   21.958618   12.944624
  86 H     1.0000    0     1.008   27.986844   21.051549   14.550891
  87 H     1.0000    0     1.008   28.138022   23.829447   13.303672
  88 O     8.0000    0    15.999   13.738309   19.917713   12.245425
  89 H     1.0000    0     1.008   13.587131   19.388590   10.487980
  90 H     1.0000    0     1.008   12.207631   20.711398   12.717857
  91 O     8.0000    0    15.999   10.034446   14.531994   13.738309
  92 H     1.0000    0     1.008   11.716302   14.702069   14.361919
  93 H     1.0000    0     1.008    9.127377   13.606028   14.985528
  94 Q     0.6645    0     0.000   16.005980   31.520632   25.454611
  95 Q     0.6645    0     0.000   15.741419   29.649803   27.533310
  96 Q    -1.3290    0     0.000   16.005980   31.067098   26.947495
  97 Q     0.6645    0     0.000    0.812582   23.697166   11.772994
  98 Q     0.6645    0     0.000    2.267671   26.059323   13.133597
  99 Q    -1.3290    0     0.000    1.001555   25.284536   12.396603
 100 Q     0.6645    0     0.000    4.573137    6.406172    9.524220
 101 Q     0.6645    0     0.000    7.558905    7.464418    9.618706
 102 Q    -1.3290    0     0.000    6.084918    6.973089    8.995096
 103 Q     0.6645    0     0.000   29.234063   14.191843    9.070685
 104 Q     0.6645    0     0.000   29.366344   17.139816    8.976199
 105 Q    -1.3290    0     0.000   29.063988   15.684727    8.447076
 106 Q     0.6645    0     0.000    9.958857   16.554001    2.475541
 107 Q     0.6645    0     0.000   10.091138   19.426385    2.003110
 108 Q    -1.3290    0     0.000   10.185624   17.895706    1.625164
 109 Q     0.6645    0     0.000   14.531994   37.907906   11.810788
 110 Q     0.6645    0     0.000   16.478412   38.720488   13.870590
 111 Q    -1.3290    0     0.000   15.779213   38.720488   12.415501
 112 Q     0.6645    0     0.000    1.870829   23.281426   18.859467
 113 Q     0.6645    0     0.000    2.570028   21.259419   20.711398
 114 Q    -1.3290    0     0.000    2.853486   22.260974   19.483076
 115 Q     0.6645    0     0.000   36.566201   15.760316   26.796317
 116 Q     0.6645    0     0.000   38.040187   18.065782   27.363234
 117 Q    -1.3290    0     0.000   37.076427   17.177611   26.456166
 118 Q     0.6645    0     0.000   30.273413   23.432604    7.880158
 119 Q     0.6645    0     0.000   28.289200   25.681378    7.218754
 120 Q    -1.3290    0     0.000   29.649803   25.001077    7.842363
 121 Q     0.6645    0     0.000   27.627796    1.492884   28.553762
 122 Q     0.6645    0     0.000   25.473508    3.174740   30.065543
 123 Q    -1.3290    0     0.000   26.626241    2.796795   28.931707
 124 Q     0.6645    0     0.000   30.972611   19.105131    1.814137
 125 Q     0.6645    0     0.000   32.011961   21.864131    0.944863
 126 Q    -1.3290    0     0.000   31.085995   20.484631    0.869274
 127 Q     0.6645    0     0.000   14.040665    4.232987   26.909700
 128 Q     0.6645    0     0.000   15.854802    6.028226   25.908145
 129 Q    -1.3290    0     0.000   14.758761    5.555795   26.909700
 130 Q     0.6645    0     0.000   32.748954   26.871906   16.629590
 131 Q     0.6645    0     0.000   35.564646   27.079775   15.835905
 132 Q    -1.3290    0     0.000   34.166249   26.342782   16.005980
 133 Q     0.6645    0     0.000    0.245664   17.328789   24.150700
 134 Q     0.6645    0     0.000    2.740103   17.026432   22.884583
 135 Q    -1.3290    0     0.000    1.266117   17.555556   23.016864
 136 Q     0.6645    0     0.000   33.863892    7.256548   21.731851
 137 Q     0.6645    0     0.000   33.164694   10.034446   21.807440
 138 Q    -1.3290    0     0.000   33.637125    8.692740   21.146035
 139 Q     0.6645    0     0.000   27.495515   24.660926   29.215166
 140 Q     0.6645    0     0.000   26.040426   27.193159   28.837221
 141 Q    -1.3290    0     0.000   27.249851   26.172707   28.648248
 142 Q     0.6645    0     0.000    6.519555   27.230954    5.140055
 143 Q     0.6645    0     0.000    6.595144   27.004186    7.955747
 144 Q    -1.3290    0     0.000    5.914843   26.815214    6.538452
 145 Q     0.6645    0     0.000    3.609377    9.373042   11.810788
 146 Q     0.6645    0     0.000    6.254994   10.185624   12.415501
 147 Q    -1.3290    0     0.000    4.705418   10.393494   12.283220
 148 Q     0.6645    0     0.000    7.502213   17.479967   33.750509
 149 Q     0.6645    0     0.000    4.799904   16.308337   34.109557
 150 Q    -1.3290    0     0.000    5.971535   17.479967   34.222940
 151 Q     0.6645    0     0.000   11.980864   29.763187   36.585098
 152 Q     0.6645    0     0.000   11.224973   27.155365   35.715824
 153 Q    -1.3290    0     0.000   10.979309   28.553762   36.396125
 154 Q     0.6645    0     0.000   15.684727   32.730057   10.865925
 155 Q     0.6645    0     0.000   18.065782   34.015070   10.166727
 156 Q    -1.3290    0     0.000   16.818563   33.108002    9.883268
 157 Q     0.6645    0     0.000   11.338357   23.923933   14.947734
 158 Q     0.6645    0     0.000    9.977754   25.133358   12.642268
 159 Q    -1.3290    0     0.000   10.487980   23.961727   13.587131
 160 Q     0.6645    0     0.000   11.735199   20.257864   21.164933
 161 Q     0.6645    0     0.000   12.547782   17.461069   21.750748
 162 Q    -1.3290    0     0.000   11.527329   18.708289   21.675159
 163 Q     0.6645    0     0.000   17.272097   20.068892    4.327473
 164 Q     0.6645    0     0.000   15.892597   21.316111    2.116493
 165 Q    -1.3290    0     0.000   16.024878   20.371248    3.420404
 166 Q     0.6645    0     0.000   34.978831   27.627796   23.243631
 167 Q     0.6645    0     0.000   34.430810   24.849899   22.412152
 168 Q    -1.3290    0     0.000   34.733166   26.418371   22.204282
 169 Q     0.6645    0     0.000   14.248535   16.459515    1.530678
 170 Q     0.6645    0     0.000   15.646932   14.154049    2.570028
 171 Q    -1.3290    0     0.000   15.061117   15.098912    1.436192
 172 Q     0.6645    0     0.000   23.659371    7.086473   36.887454
 173 Q     0.6645    0     0.000   23.829447    5.536898   34.563091
 174 Q    -1.3290    0     0.000   23.678268    5.744767   36.055975
 175 Q     0.6645    0     0.000    7.351035   21.712953   12.302117
 176 Q     0.6645    0     0.000    5.895946   20.824782    9.939959
 177 Q    -1.3290    0     0.000    6.311685   20.805885   11.489535
 178 Q     0.6645    0     0.000   26.323885   25.681378   41.347208
 179 Q     0.6645    0     0.000   28.289200   23.791652   41.819639
 180 Q    -1.3290    0     0.000   27.514413   24.831001   40.912571
 181 Q     0.6645    0     0.000   27.382132    7.672288   15.722521
 182 Q     0.6645    0     0.000   27.552207    8.900610   13.228083
 183 Q    -1.3290    0     0.000   26.758522    8.144720   14.343021
 184 Q     0.6645    0     0.000   27.571104    6.803014   39.381893
 185 Q     0.6645    0     0.000   29.933262    7.369932   37.718934
 186 Q    -1.3290    0     0.000   28.383687    7.615596   38.285851
 187 Q     0.6645    0     0.000   24.717618   19.180720    3.647171
 188 Q     0.6645    0     0.000   24.490851   20.390145    1.001555
 189 Q    -1.3290    0     0.000   24.849899   20.390145    2.551130
 190 Q     0.6645    0     0.000    9.335247   35.432365   29.612009
 191 Q     0.6645    0     0.000   11.924172   33.939481   29.895467
 192 Q    -1.3290    0     0.000   10.299007   34.185146   29.687598
 193 Q     0.6645    0     0.000   11.451740   36.490612   22.903481
 194 Q     0.6645    0     0.000   13.001316   37.038632   25.227844
 195 Q    -1.3290    0     0.000   12.037555   37.397680   24.018419
 196 Q     0.6645    0     0.000   29.593111   13.417056   13.322569
 197 Q     0.6645    0     0.000   30.991509   11.224973   12.075350
 198 Q    -1.3290    0     0.000   29.876570   12.302117   12.188734
 199 Q     0.6645    0     0.000   26.966392   39.854324   11.508432
 200 Q     0.6645    0     0.000   27.268748   38.512619   14.324124
 201 Q    -1.3290    0     0.000   27.457721   39.665352   13.133597
 202 Q     0.6645    0     0.000   20.295659   37.397680   12.302117
 203 Q     0.6645    0     0.000   22.733405   35.885899   11.867480
 204 Q    -1.3290    0     0.000   21.164933   36.074872   12.018658
 205 Q     0.6645    0     0.000   29.971056   17.139816   37.681139
 206 Q     0.6645    0     0.000   27.533310   18.651597   37.454372
 207 Q    -1.3290    0     0.000   28.572659   17.498864   37.076427
 208 Q     0.6645    0     0.000   34.260735   31.747399   27.457721
 209 Q     0.6645    0     0.000   33.618228   28.931707   27.854563
 210 Q    -1.3290    0     0.000   34.355221   30.178926   27.174262
[...]
 338   Q   :   -0.065726350   -0.251283835   -0.064225258
 339   Q   :    0.239857020    0.081509694   -0.002593345
 340   Q   :   -0.170965960    0.168800525    0.064312155
 341   Q   :   -0.147290461   -0.094448180   -0.215324307
 342   Q   :   -0.094615078   -0.001441037    0.266746354
 343   Q   :    0.253239862    0.087452048   -0.047877498
 344   Q   :   -0.216875624    0.018346276   -0.080010523
 345   Q   :    0.222399336   -0.137868564   -0.087465241
 346   Q   :   -0.003598602    0.116686938    0.160676505
 347   Q   :   -0.239206799   -0.155091558   -0.057763322
 348   Q   :    0.000141545    0.156427360    0.269173069
 349   Q   :    0.238483949    0.002442656   -0.208145447
 350   Q   :    0.159135998    0.124116126   -0.196201986
 351   Q   :   -0.137215782    0.128022961    0.207656624
 352   Q   :   -0.020521472   -0.255478187   -0.016169860
 353   Q   :   -0.119073705    0.243605440    0.123598069
 354   Q   :    0.042057396   -0.246156814    0.135735688
 355   Q   :    0.075097339    0.017871605   -0.259551943
 356   Q   :   -0.062613176   -0.052494345    0.301331270
 357   Q   :   -0.247998201    0.088393814   -0.176869244
 358   Q   :    0.309868065   -0.032231196   -0.130560926
 359   Q   :    0.144182860   -0.235974707    0.008932649
 360   Q   :   -0.099673418    0.107909281    0.235100568
 361   Q   :   -0.048686363    0.123640641   -0.245910629
 362   Q   :   -0.059177665   -0.276875550    0.083912478
 363   Q   :    0.152208924    0.069409986   -0.226718175
 364   Q   :   -0.084936969    0.202760011    0.149302873
 365   Q   :    0.120002074    0.297100401   -0.017547879
 366   Q   :    0.151728424   -0.232990935   -0.163469999
 367   Q   :   -0.269750549   -0.058692967    0.180056666
 368   Q   :   -0.113419092    0.172371650   -0.211197955
 369   Q   :    0.247381944    0.082530857    0.160612369
 370   Q   :   -0.133268835   -0.248124828    0.065805330
 371   Q   :   -0.291098591   -0.041755958   -0.037275009
 372   Q   :    0.177058094   -0.218538236    0.064364342
 373   Q   :    0.128609134    0.252357933   -0.022116621
 374   Q   :   -0.119261110    0.229114585   -0.095539140
 375   Q   :   -0.028994642   -0.088063894    0.282771488
 376   Q   :    0.152991273   -0.145557595   -0.202160714
 377   Q   :   -0.132869095   -0.037314379    0.251939731
 378   Q   :    0.242882026    0.194888389   -0.030149532
 379   Q   :   -0.119040694   -0.152718590   -0.226026389
 380   Q   :   -0.055364718   -0.271671646    0.015941620
 381   Q   :   -0.159353665    0.187785452    0.149017336
 382   Q   :    0.220142067    0.078773657   -0.168655299
 383   Q   :    0.117705358   -0.010358267   -0.264750507
 384   Q   :    0.161100074    0.066233137    0.220034367
 385   Q   :   -0.271331037   -0.055901947    0.047716993
 386   Q   :    0.049353723    0.222836943    0.242495353
 387   Q   :    0.230926773   -0.169338999   -0.085275494
 388   Q   :   -0.286057343   -0.054249774   -0.164686093
 389   Q   :   -0.084873184   -0.052334608    0.279052687
 390   Q   :   -0.186461618    0.077570967   -0.228761944
 391   Q   :    0.277220603   -0.024707708   -0.057152951
 392   Q   :    0.088670245   -0.241687470    0.031152565
 393   Q   :    0.064541799    0.222357209    0.197963333
 394   Q   :   -0.147463735    0.026342724   -0.220701658
 395   Q   :   -0.125347516   -0.029547685   -0.196292391
 396   Q   :   -0.035766045   -0.091292240    0.261515271
 397   Q   :    0.156028255    0.127825854   -0.060534533
 398   Q   :   -0.131144069   -0.218957276    0.119590413
 399   Q   :   -0.078260255    0.152142905   -0.196829742
 400   Q   :    0.212591643    0.057109228    0.070752165
 401   Q   :    0.124791034    0.198616668   -0.142970028
 402   Q   :    0.036676580   -0.290546240   -0.042864492
 403   Q   :   -0.164856562    0.079346079    0.185469267
 404   Q   :    0.011968594   -0.073878749   -0.283827949
 405   Q   :    0.194442303    0.138248379    0.127555368
 406   Q   :   -0.216213550   -0.070847018    0.155404355
 407   Q   :   -0.224409296    0.157272315    0.069954385
 408   Q   :    0.230936990   -0.023264933    0.144466578
 409   Q   :   -0.009426716   -0.129250755   -0.202967248
 410   Q   :    0.241702207   -0.098392438    0.016725129
 411   Q   :   -0.258827117   -0.117755048   -0.092948276
 412   Q   :    0.014908880    0.214616855    0.075885559
 413   Q   :   -0.196345193   -0.023079877   -0.271725693
 414   Q   :   -0.054473047   -0.198466053    0.234398680
 415   Q   :    0.255836233    0.225270159    0.034439224
 416   Q   :   -0.250165345   -0.075908005    0.044457408
 417   Q   :    0.114849386    0.259548847    0.111021670
 418   Q   :    0.142902808   -0.179493073   -0.148862083
 419   Q   :    0.085705370    0.091436309    0.243791764
 420   Q   :   -0.169526216    0.117913903   -0.166305187
 421   Q   :    0.085495068   -0.214695093   -0.088207219
 422   Q   :   -0.244091317   -0.077073196    0.074448368
 423   Q   :    0.177275553    0.084642031    0.137142798
 424   Q   :    0.056346593   -0.005546115   -0.213022635
 425   Q   :    0.186690165   -0.065097638    0.174257265
 426   Q   :   -0.057205587    0.221504393   -0.090220719
 427   Q   :   -0.146247301   -0.154443741   -0.080296909
 428   Q   :    0.222057056   -0.088685168    0.131117946
 429   Q   :   -0.177449910    0.254352083    0.050962286
 430   Q   :   -0.049055367   -0.164718192   -0.182829629
 431   Q   :   -0.172991227    0.071261469    0.185526263
 432   Q   :    0.151235022    0.154804169   -0.168656236
 433   Q   :    0.016590428   -0.232720723   -0.024944883
 434   Q   :   -0.083438028   -0.270846338   -0.003057333
 435   Q   :    0.217568883    0.102903550    0.137166846
 436   Q   :   -0.127482927    0.170387866   -0.120763217
 437   Q   :    0.057614953    0.012880578    0.297921823
 438   Q   :    0.090193161    0.153987935   -0.189340119
 439   Q   :   -0.149770342   -0.173137920   -0.098680357
 440   Q   :   -0.216945769   -0.020209661    0.159992722
 441   Q   :    0.240743361    0.198630867    0.080275080
 442   Q   :   -0.008972945   -0.176173157   -0.238138820
 443   Q   :    0.202273698   -0.159478912    0.005726653
 444   Q   :   -0.026132068    0.259072558   -0.109167694
 445   Q   :   -0.184187606   -0.081004246    0.101881723
 446   Q   :   -0.134891106    0.165104134    0.159087643
 447   Q   :    0.217254261   -0.164714313    0.098644060
 448   Q   :   -0.079479514   -0.004443848   -0.251063154
 449   Q   :    0.237258143   -0.124913864    0.039633799
 450   Q   :   -0.063731140    0.243056842   -0.127618268
 451   Q   :   -0.170200278   -0.108054589    0.095212242
 452   Q   :    0.242054118   -0.035554764    0.111403628
 453   Q   :   -0.097987338    0.204375457   -0.081330695
 454   Q   :   -0.136698063   -0.166777576   -0.028860972
 455   Q   :   -0.137331290   -0.027617010    0.240195655
 456   Q   :    0.009253976   -0.208520536   -0.197365694
 457   Q   :    0.125118696    0.235022868   -0.048282537
 458   Q   :    0.104386651    0.249869004    0.031556361
 459   Q   :    0.135507583   -0.220475569    0.011022409
 460   Q   :   -0.234848845   -0.023285077   -0.038920252
 461   Q   :    0.003260930    0.248668235    0.029609116
 462   Q   :   -0.203702094   -0.178911300   -0.038650848
 463   Q   :    0.198254643   -0.085959770    0.000094152
 464   Q   :   -0.302974262   -0.063101757   -0.009188031
 465   Q   :    0.119794674    0.175506819   -0.175798981
 466   Q   :    0.168134683   -0.106720493    0.179027800
 467   Q   :   -0.037949926   -0.296733088    0.016563629
 468   Q   :   -0.150787279    0.204487454   -0.006764041
 469   Q   :    0.197732218    0.092429485   -0.007660599
 470   Q   :    0.081079223    0.234383489   -0.026892159
 471   Q   :    0.090248263   -0.238744094   -0.117453955
 472   Q   :   -0.170779678    0.003832937    0.151401661
 473   Q   :    0.164312563    0.009752526    0.266916172
 474   Q   :    0.099427005    0.225667482   -0.207504947
 475   Q   :   -0.256472627   -0.238787780   -0.056392681
 476   Q   :    0.211403310    0.201763637    0.069573974
 477   Q   :   -0.237156519    0.065212776   -0.137844962
 478   Q   :    0.024778224   -0.256796578    0.057199463
 479   Q   :    0.077700933   -0.260498810    0.069324653
 480   Q   :    0.159871416    0.218669997   -0.053729912
 481   Q   :   -0.237550919    0.046154113   -0.017420896
 482   Q   :   -0.038956719    0.029232948   -0.292192435
 483   Q   :    0.192064947    0.188484329    0.150144208
 484   Q   :   -0.147837415   -0.215932962    0.144504516
 485   Q   :    0.207847431   -0.099969574   -0.149089534
 486   Q   :   -0.176081126   -0.104735222    0.158932447
 487   Q   :   -0.035991144    0.199269260   -0.011379067
 488   Q   :   -0.151572840    0.007647282    0.255265029
 489   Q   :   -0.103571239    0.016060608   -0.249005671
 490   Q   :    0.248549054   -0.019459924   -0.005545179
 491   Q   :   -0.011714681   -0.181391856   -0.248635191
 492   Q   :    0.287672244    0.015394820    0.108220907
 493   Q   :   -0.269603826    0.170038800    0.138666170
 494   Q   :    0.240449116    0.093787462   -0.185380660
 495   Q   :    0.061111932   -0.029841318    0.275821096
 496   Q   :   -0.298036319   -0.073443521   -0.093115691
 497   Q   :   -0.221751377   -0.182173600    0.152438753
 498   Q   :    0.107698947   -0.051884283   -0.260698523
 499   Q   :    0.117700356    0.236826210    0.106783167
 500   Q   :   -0.022674549   -0.206127099   -0.136068644
 501   Q   :   -0.052431370    0.277206823   -0.038065881
 502   Q   :    0.064174072   -0.065837405    0.162671128
 503   Q   :   -0.078294267   -0.122717224    0.248579261
 504   Q   :    0.108851362   -0.129918710   -0.225255382
 505   Q   :   -0.017051799    0.245550025   -0.028825792
 506   Q   :    0.293879372   -0.024515737   -0.134446710
 507   Q   :   -0.093431901   -0.218019601    0.180058897
 508   Q   :   -0.203354309    0.249719246   -0.048681561
 509   Q   :   -0.026348100    0.263601327    0.012329481
 510   Q   :    0.207966856   -0.114342184   -0.143910662
 511   Q   :   -0.192323120   -0.141976352    0.133908978
 512   Q   :   -0.148298856   -0.195169256    0.103913020
 513   Q   :   -0.055774893    0.244754982   -0.056495947
 514   Q   :    0.196366864   -0.050720126   -0.044680907
 515   Q   :   -0.058228188   -0.261638931   -0.045502331
 516   Q   :   -0.017486115    0.139261571    0.256976721
 517   Q   :    0.075438716    0.133604071   -0.212456329
 518   Q   :    0.177309070    0.181572099   -0.102376181
 519   Q   :   -0.179661967   -0.168100924   -0.177217926
 520   Q   :   -0.003648144   -0.019370275    0.272200495
 521   Q   :   -0.072739647   -0.092842892   -0.214228355
 522   Q   :    0.012943773   -0.139242465    0.241649849
 523   Q   :    0.059578756    0.224810324   -0.021404564
 524   Q   :   -0.038585055   -0.083567242    0.249656979
 525   Q   :   -0.153052531   -0.065413742   -0.216011713
 526   Q   :    0.189235185    0.158232472   -0.036525029
 527   Q   :    0.236022863   -0.054256616    0.140382410
 528   Q   :   -0.215444749    0.172107652    0.083814594
 529   Q   :   -0.028104305   -0.118834176   -0.225059590
 530   Q   :    0.202487569    0.066773835    0.174253368
 531   Q   :   -0.001922545   -0.220156805   -0.160462188
 532   Q   :   -0.192135962    0.152882193   -0.010588425
 533   Q   :   -0.088203939   -0.128566243    0.226911772
 534   Q   :    0.022335631   -0.127579935   -0.239520540
 535   Q   :    0.055030075    0.261670442    0.018474086
 536   Q   :   -0.145088373   -0.079528034   -0.183442118
 537   Q   :   -0.049594946    0.226367740    0.178500944
 538   Q   :    0.186454863   -0.141898505    0.021818863
 539   Q   :    0.172128363   -0.200929588    0.082251208
 540   Q   :    0.061624800    0.306242991    0.021422799
 541   Q   :   -0.228363325   -0.089671852   -0.109037371
 542   Q   :    0.189772993   -0.183393280    0.006943499
 543   Q   :   -0.001332798    0.248661393   -0.078228867
 544   Q   :   -0.183214296   -0.057388839    0.075659309
 545   Q   :    0.226363804   -0.148921738   -0.048948097
 546   Q   :   -0.090812823    0.064867891    0.237783983
 547   Q   :   -0.135481956    0.087494625   -0.188309917
 548   Q   :   -0.031490535   -0.263892970    0.058209231
 549   Q   :    0.080932592    0.170623255    0.150937770
 550   Q   :   -0.056959092    0.099262455   -0.211626113
 551   Q   :   -0.247214738   -0.133617430   -0.010626200
 552   Q   :    0.150369743    0.007661610   -0.210523651
 553   Q   :    0.080459633    0.129543502    0.223179944
 554   Q   :    0.207639943    0.251688773   -0.035229284
 555   Q   :   -0.291312599    0.086899008   -0.039522791
 556   Q   :    0.087017412   -0.336457334    0.077267726
 557   Q   :    0.243045524   -0.038390399   -0.104376952
 558   Q   :   -0.173309092    0.212758366   -0.029835428
 559   Q   :   -0.074279131   -0.177738211    0.146191184
 560   Q   :   -0.054190078    0.234526545    0.181204498
 561   Q   :    0.076560764    0.037241233   -0.274299572
 562   Q   :   -0.018477419   -0.274327788    0.085149220
 563   Q   :    0.085778719   -0.163179820    0.180418393
 564   Q   :    0.030675604   -0.014719570   -0.256169792
 565   Q   :   -0.117733532    0.181014495    0.090961700
 566   Q   :   -0.254033621    0.105780447    0.025476332
 567   Q   :    0.218422520    0.126304207   -0.072862524
 568   Q   :    0.029011571   -0.237181033    0.054274659
 569   Q   :    0.252577325   -0.032622863   -0.000858439
 570   Q   :   -0.146449806    0.155054269   -0.186585717
 571   Q   :   -0.119896847   -0.112502319    0.193358396
 572   Q   :    0.232894220    0.092047674    0.145483238
 573   Q   :   -0.049244251   -0.275264156   -0.016017428
 574   Q   :   -0.184509573    0.189201727   -0.120741140
 575   Q   :    0.188112249   -0.198471187    0.064053744
 576   Q   :   -0.285733986   -0.012586142   -0.027511655
 577   Q   :    0.090731973    0.204989528   -0.041270653
 578   Q   :    0.028029878    0.143329074    0.180601632
 579   Q   :   -0.107830490    0.093371937   -0.236597765
 580   Q   :    0.087334420   -0.234871897    0.040573786
 581   Q   :   -0.042417270   -0.047074180   -0.274067600
 582   Q   :    0.183395994    0.157336467    0.105444552
 583   Q   :   -0.135157193   -0.112311937    0.165824648
 584   Q   :   -0.164755149   -0.167926321   -0.130383664
 585   Q   :   -0.005254675    0.269062384    0.046179119
 586   Q   :    0.173399812   -0.093549556    0.093963294
 587   Q   :    0.228527515   -0.128228176   -0.123042810
 588   Q   :   -0.203719342   -0.142663568    0.157719327
 589   Q   :   -0.021898064    0.275564342   -0.020945965
 590   Q   :   -0.223860725   -0.004661650   -0.192924894
 591   Q   :   -0.013747452   -0.129036156    0.286823296
 592   Q   :    0.247002811    0.142500040   -0.093573434
 593   Q   :    0.153191005   -0.103857296    0.180377432
 594   Q   :   -0.147294793   -0.080338197   -0.199320359
 595   Q   :   -0.000043592    0.169388400    0.015470626
 596   Q   :    0.176492671   -0.096799484   -0.199749596
 597   Q   :   -0.044102783    0.251656280    0.043448110
 598   Q   :   -0.129095532   -0.149983217    0.155249283
 599   Q   :   -0.097407619    0.113933563   -0.196907754
 600   Q   :   -0.128472040   -0.105944182    0.219657662
 601   Q   :    0.222113417   -0.015399909   -0.021437420
 602   Q   :   -0.191719876   -0.039972842    0.160377179
 603   Q   :    0.201746923    0.172237394    0.010297590
 604   Q   :   -0.007967845   -0.132075994   -0.172560357
 605   Q   :    0.191563677    0.158613914   -0.176202528
 606   Q   :   -0.060413617    0.060164542    0.248315419
 607   Q   :   -0.131773830   -0.222221885   -0.080810863
 608   Q   :   -0.157700839    0.093135985    0.226437784
 609   Q   :    0.177912502   -0.246252898    0.057648657
 610   Q   :   -0.012068323    0.149652629   -0.294241396
 611   Q   :    0.145805242    0.030037691    0.251574236
 612   Q   :   -0.258592924    0.090075565   -0.044622552
 613   Q   :    0.119196256   -0.124251398   -0.196647916
 614   Q   :    0.181977929   -0.151697343   -0.105026578
 615   Q   :    0.082300380    0.280503550    0.117805622
 616   Q   :   -0.260267802   -0.131124340   -0.010318738
 617   Q   :   -0.159565973   -0.121714255   -0.173960312
 618   Q   :   -0.065346136    0.019498063    0.301166274
 619   Q   :    0.221494097    0.106225983   -0.127248551
 620   Q   :   -0.016026243    0.181821477    0.171765235
 621   Q   :    0.225052060   -0.197078176   -0.038240240
 622   Q   :   -0.202449404   -0.003298812   -0.136803840
 623   Q   :   -0.130760535   -0.034285258   -0.195263651
 624   Q   :    0.025214424    0.114781458    0.172103575
 625   Q   :    0.091002245   -0.089387682    0.030577038
 626   Q   :    0.015527186   -0.085261383   -0.289822614
 627   Q   :    0.052853192    0.317136205    0.031676033
 628   Q   :   -0.068451258   -0.228549754    0.261732264

Difference to translation invariance:
           :    0.0001512500    0.0003082177   -0.0008269484

Difference to rotation invariance:
           :   -0.0228545532    0.0149281935    0.0019538656

Norm of the cartesian gradient     ...    6.3741951625
RMS gradient                       ...    0.1468537048
MAX gradient                       ...    0.3364573342

-------
TIMINGS
-------

Total SCF gradient time            ...      156.295 sec

One electron gradient       ....      23.016 sec  ( 14.7%)
RI-J Coulomb gradient       ....       8.417 sec  (  5.4%)
COSX gradient               ....      93.827 sec  ( 60.0%)
XC gradient                 ....      13.637 sec  (  8.7%)

Maximum memory used throughout the entire SCFGRAD-calculation: 644.9 MB

                            ***************************************
                            *     ORCA property calculations      *
                            ***************************************

                                    ---------------------
                                    Active property flags
                                    ---------------------
   (+) Dipole Moment


------------------------------------------------------------------------------
                       ORCA ELECTRIC PROPERTIES CALCULATION
------------------------------------------------------------------------------

Dipole Moment Calculation                       ... on
Quadrupole Moment Calculation                   ... off
Polarizability Calculation                      ... off
GBWName                                         ... final054.orca.gbw
Electron density                                ... final054.orca.scfp
The origin for moment calculation is the CENTER OF MASS  = (21.292067, 19.879953 19.536060)

-------------
DIPOLE MOMENT
-------------
                                X             Y             Z
Electronic contribution:     -0.26396      -1.13579      -0.56982
Nuclear contribution   :     15.26237       2.08515      14.55928
                        -----------------------------------------
Total Dipole Moment    :     14.99841       0.94936      13.98947
                        -----------------------------------------
Magnitude (a.u.)       :     20.53190
Magnitude (Debye)      :     52.18794



--------------------
Rotational spectrum 
--------------------
 
Rotational constants in cm-1:     0.002073     0.001927     0.001662 
Rotational constants in MHz :    62.143558    57.771484    49.812395 

 Dipole components along the rotational axes: 
x,y,z [a.u.] :   -16.710089    11.517849    -3.109813 
x,y,z [Debye]:   -42.473672    29.276044    -7.904516 

 

Timings for individual modules:

Sum of individual times         ...      683.953 sec (=  11.399 min)
GTO integral calculation        ...       11.757 sec (=   0.196 min)   1.7 %
SCF iterations                  ...      511.450 sec (=   8.524 min)  74.8 %
SCF Gradient evaluation         ...      160.746 sec (=   2.679 min)  23.5 %
                             ****ORCA TERMINATED NORMALLY****
TOTAL RUN TIME: 0 days 0 hours 11 minutes 31 seconds 284 msec
