
                                 *****************
                                 * O   R   C   A *
                                 *****************

                                            #,                                       
                                            ###                                      
                                            ####                                     
                                            #####                                    
                                            ######                                   
                                           ########,                                 
                                     ,,################,,,,,                         
                               ,,#################################,,                 
                          ,,##########################################,,             
                       ,#########################################, ''#####,          
                    ,#############################################,,   '####,        
                  ,##################################################,,,,####,       
                ,###########''''           ''''###############################       
              ,#####''   ,,,,##########,,,,          '''####'''          '####       
            ,##' ,,,,###########################,,,                        '##       
           ' ,,###''''                  '''############,,,                           
         ,,##''                                '''############,,,,        ,,,,,,###''
      ,#''                                            '''#######################'''  
     '                                                          ''''####''''         
             ,#######,   #######,   ,#######,      ##                                
            ,#'     '#,  ##    ##  ,#'     '#,    #''#        ######   ,####,        
            ##       ##  ##   ,#'  ##            #'  '#       #        #'  '#        
            ##       ##  #######   ##           ,######,      #####,   #    #        
            '#,     ,#'  ##    ##  '#,     ,#' ,#      #,         ##   #,  ,#        
             '#######'   ##     ##  '#######'  #'      '#     #####' # '####'        



                  #######################################################
                  #                        -***-                        #
                  #          Department of theory and spectroscopy      #
                  #    Directorship and core code : Frank Neese         #
                  #        Max Planck Institute fuer Kohlenforschung    #
                  #                Kaiser Wilhelm Platz 1               #
                  #                 D-45470 Muelheim/Ruhr               #
                  #                      Germany                        #
                  #                                                     #
                  #                  All rights reserved                #
                  #                        -***-                        #
                  #######################################################


                         Program Version 5.0.3 -  RELEASE  -


 With contributions from (in alphabetic order):
   Daniel Aravena         : Magnetic Suceptibility
   Michael Atanasov       : Ab Initio Ligand Field Theory (pilot matlab implementation)
   Alexander A. Auer      : GIAO ZORA, VPT2 properties, NMR spectrum
   Ute Becker             : Parallelization
   Giovanni Bistoni       : ED, misc. LED, open-shell LED, HFLD
   Martin Brehm           : Molecular dynamics
   Dmytro Bykov           : SCF Hessian
   Vijay G. Chilkuri      : MRCI spin determinant printing, contributions to CSF-ICE
   Dipayan Datta          : RHF DLPNO-CCSD density
   Achintya Kumar Dutta   : EOM-CC, STEOM-CC
   Dmitry Ganyushin       : Spin-Orbit,Spin-Spin,Magnetic field MRCI
   Miquel Garcia          : C-PCM and meta-GGA Hessian, CC/C-PCM, Gaussian charge scheme
   Yang Guo               : DLPNO-NEVPT2, F12-NEVPT2, CIM, IAO-localization
   Andreas Hansen         : Spin unrestricted coupled pair/coupled cluster methods
   Benjamin Helmich-Paris : MC-RPA, TRAH-SCF, COSX integrals
   Lee Huntington         : MR-EOM, pCC
   Robert Izsak           : Overlap fitted RIJCOSX, COSX-SCS-MP3, EOM
   Marcus Kettner         : VPT2
   Christian Kollmar      : KDIIS, OOCD, Brueckner-CCSD(T), CCSD density, CASPT2, CASPT2-K
   Simone Kossmann        : Meta GGA functionals, TD-DFT gradient, OOMP2, MP2 Hessian
   Martin Krupicka        : Initial AUTO-CI
   Lucas Lang             : DCDCAS
   Marvin Lechner         : AUTO-CI (C++ implementation), FIC-MRCC
   Dagmar Lenk            : GEPOL surface, SMD
   Dimitrios Liakos       : Extrapolation schemes; Compound Job, initial MDCI parallelization
   Dimitrios Manganas     : Further ROCIS development; embedding schemes
   Dimitrios Pantazis     : SARC Basis sets
   Anastasios Papadopoulos: AUTO-CI, single reference methods and gradients
   Taras Petrenko         : DFT Hessian,TD-DFT gradient, ASA, ECA, R-Raman, ABS, FL, XAS/XES, NRVS
   Peter Pinski           : DLPNO-MP2, DLPNO-MP2 Gradient
   Christoph Reimann      : Effective Core Potentials
   Marius Retegan         : Local ZFS, SOC
   Christoph Riplinger    : Optimizer, TS searches, QM/MM, DLPNO-CCSD(T), (RO)-DLPNO pert. Triples
   Tobias Risthaus        : Range-separated hybrids, TD-DFT gradient, RPA, STAB
   Michael Roemelt        : Original ROCIS implementation
   Masaaki Saitow         : Open-shell DLPNO-CCSD energy and density
   Barbara Sandhoefer     : DKH picture change effects
   Avijit Sen             : IP-ROCIS
   Kantharuban Sivalingam : CASSCF convergence, NEVPT2, FIC-MRCI
   Bernardo de Souza      : ESD, SOC TD-DFT
   Georgi Stoychev        : AutoAux, RI-MP2 NMR, DLPNO-MP2 response
   Willem Van den Heuvel  : Paramagnetic NMR
   Boris Wezisla          : Elementary symmetry handling
   Frank Wennmohs         : Technical directorship


 We gratefully acknowledge several colleagues who have allowed us to
 interface, adapt or use parts of their codes:
   Stefan Grimme, W. Hujo, H. Kruse, P. Pracht,  : VdW corrections, initial TS optimization,
                  C. Bannwarth, S. Ehlert          DFT functionals, gCP, sTDA/sTD-DF
   Ed Valeev, F. Pavosevic, A. Kumar             : LibInt (2-el integral package), F12 methods
   Garnet Chan, S. Sharma, J. Yang, R. Olivares  : DMRG
   Ulf Ekstrom                                   : XCFun DFT Library
   Mihaly Kallay                                 : mrcc  (arbitrary order and MRCC methods)
   Jiri Pittner, Ondrej Demel                    : Mk-CCSD
   Frank Weinhold                                : gennbo (NPA and NBO analysis)
   Christopher J. Cramer and Donald G. Truhlar   : smd solvation model
   Lars Goerigk                                  : TD-DFT with DH, B97 family of functionals
   V. Asgeirsson, H. Jonsson                     : NEB implementation
   FAccTs GmbH                                   : IRC, NEB, NEB-TS, DLPNO-Multilevel, CI-OPT
                                                   MM, QMMM, 2- and 3-layer-ONIOM, Crystal-QMMM,
                                                   LR-CPCM, SF, NACMEs, symmetry and pop. for TD-DFT,
                                                   nearIR, NL-DFT gradient (VV10), updates on ESD,
                                                   ML-optimized integration grids
   S Lehtola, MJT Oliveira, MAL Marques          : LibXC Library
   Liviu Ungur et al                             : ANISO software


 Your calculation uses the libint2 library for the computation of 2-el integrals
 For citations please refer to: http://libint.valeyev.net

 Your ORCA version has been built with support for libXC version: 5.1.0
 For citations please refer to: https://tddft.org/programs/libxc/

 This ORCA versions uses:
   CBLAS   interface :  Fast vector & matrix operations
   LAPACKE interface :  Fast linear algebra routines
   SCALAPACK package :  Parallel linear algebra routines
   Shared memory     :  Shared parallel matrices
   BLAS/LAPACK       :  OpenBLAS 0.3.15  USE64BITINT DYNAMIC_ARCH NO_AFFINITY SkylakeX SINGLE_THREADED
        Core in use  :  SkylakeX
   Copyright (c) 2011-2014, The OpenBLAS Project


================================================================================

----- Orbital basis set information -----
Your calculation utilizes the basis: def2-SVP
   F. Weigend and R. Ahlrichs, Phys. Chem. Chem. Phys. 7, 3297 (2005).

The basis set includes element-specific modifications.

Your calculation utilizes the basis: aug-cc-pVTZ 
    H, B-Ne : Obtained from the ccRepo (grant-hill.group.shef.ac.uk/ccrepo) Feb. 2017
              R. A. Kendall, T. H. Dunning, Jr., R. J. Harrison, J. Chem. Phys. 96, 6796 (1992)
         He : Obtained from the ccRepo (grant-hill.group.shef.ac.uk/ccrepo) Feb. 2017
              D. E. Woon, T. H. Dunning, Jr., J. Chem. Phys. 100, 2975 (1994)
  Li-Be, Na : Obtained from the ccRepo (grant-hill.group.shef.ac.uk/ccrepo) Feb. 2017
              B. P. Prascher, D. E. Woon, K. A. Peterson, T. H. Dunning, Jr., A. K. Wilson, Theor. Chem. Acc. 128, 69 (2011)
         Mg : Obtained from the Peterson Research Group Website (tyr0.chem.wsu.edu/~kipeters) Feb. 2017
              B. P. Prascher, D. E. Woon, K. A. Peterson, T. H. Dunning, Jr., A. K. Wilson, Theor. Chem. Acc. 128, 69 (2011)
      Al-Ar : Obtained from the ccRepo (grant-hill.group.shef.ac.uk/ccrepo) Feb. 2017
              D. E. Woon, T. H. Dunning, Jr., J. Chem. Phys. 98, 1358 (1993)
      Sc-Zn : Obtained from the ccRepo (grant-hill.group.shef.ac.uk/ccrepo) Feb. 2017
              N. B. Balabanov, K. A. Peterson, J. Chem. Phys. 123, 064107 (2005)
              N. B. Balabanov, K. A. Peterson, J. Chem. Phys. 125, 074110 (2006)
      Ga-Kr : Obtained from the ccRepo (grant-hill.group.shef.ac.uk/ccrepo) Feb. 2017
              A. K. Wilson, D. E. Woon, K. A. Peterson, T. H. Dunning, Jr., J. Chem. Phys. 110, 7667 (1999)
     Ag, Au : Obtained from the Peterson Research Group Website (tyr0.chem.wsu.edu/~kipeters) Feb. 2017
              K. A. Peterson, C. Puzzarini, Theor. Chem. Acc. 114, 283 (2005)

Your calculation utilizes the basis: cc-pVTZ 
       H, B-Ne : Obtained from the ccRepo (grant-hill.group.shef.ac.uk/ccrepo) Feb. 2017
                 T. H. Dunning, Jr., J. Chem. Phys. 90, 1007 (1989)
            He : Obtained from the ccRepo (grant-hill.group.shef.ac.uk/ccrepo) Feb. 2017
                 D. E. Woon, T. H. Dunning, Jr., J. Chem. Phys. 100, 2975 (1994)
  Li-Be, Na-Mg : Obtained from the ccRepo (grant-hill.group.shef.ac.uk/ccrepo) Feb. 2017
                 B. P. Prascher, D. E. Woon, K. A. Peterson, T. H. Dunning, Jr., A. K. Wilson, Theor. Chem. Acc. 128, 69 (2011)
         Al-Ar : Obtained from the ccRepo (grant-hill.group.shef.ac.uk/ccrepo) Feb. 2017
                 D. E. Woon, T. H. Dunning, Jr., J. Chem. Phys. 98, 1358 (1993)
            Ca : Obtained from the Peterson Research Group Website (tyr0.chem.wsu.edu/~kipeters) Feb. 2017
                 J. Koput, K. A. Peterson, J. Phys. Chem. 106, 9595 (2002)
         Sc-Zn : Obtained from the ccRepo (grant-hill.group.shef.ac.uk/ccrepo) Feb. 2017
                 N. B. Balabanov, K. A. Peterson, J. Chem. Phys. 123, 064107 (2005)
                 N. B. Balabanov, K. A. Peterson, J. Chem. Phys. 125, 074110 (2006)
         Ga-Kr : Obtained from the ccRepo (grant-hill.group.shef.ac.uk/ccrepo) Feb. 2017
                 A. K. Wilson, D. E. Woon, K. A. Peterson, T. H. Dunning, Jr., J. Chem. Phys. 110, 7667 (1999)
             Y : Obtained from the ccRepo (grant-hill.group.shef.ac.uk/ccrepo) Feb. 2017
                 K. A. Peterson, D. Figgen, M. Dolg, H. Stoll, J. Chem. Phys. 126, 124101 (2007)
        Ag, Au : Obtained from the Peterson Research Group Website (tyr0.chem.wsu.edu/~kipeters) Feb. 2017
                 K. A. Peterson, C. Puzzarini, Theor. Chem. Acc. 114, 283 (2005)

----- AuxJ basis set information -----
Your calculation utilizes the auxiliary basis: def2/J
   F. Weigend, Phys. Chem. Chem. Phys. 8, 1057 (2006).

================================================================================
                                        WARNINGS
                       Please study these warnings very carefully!
================================================================================

WARNING: The globally-selected AuxJ basis set is optimized for use with ECPs
         Make sure a suitable alternative is explicitly given all heavy elements (Z>36)

INFO   : the flag for use of the SHARK integral package has been found!

================================================================================
                                       INPUT FILE
================================================================================
NAME = final074.orca.inp
|  1> ! NoMOPrint PrintBasis #MINIPRINT SMALLPRINT LARGEPRINT
|  2> ! ALLPOP XYZFILE
|  3> #! BP86 3-21G   TightSCF
|  4> ! ENGRAD
|  5> ! B3LYP NormalPNO PModel #DecontractAux
|  6> #! VerySlowConv 
|  7>  %maxcore 5000
|  8>  %scf  maxiter   500  end 
|  9> 
| 10> %pal
| 11>     nprocs 32
| 12> end
| 13> 
| 14> %basis
| 15>     NewGTO O    # New basis for oxygen
| 16>         "aug-cc-pVTZ"
| 17>     end
| 18>     NewGTO C    # New basis for carbon
| 19>         "aug-cc-pVTZ"
| 20>     end
| 21>     NewGTO H    # New basis for hydrogen
| 22>         "cc-pVTZ"
| 23>     end
| 24> end
| 25> 
| 26> * xyz 0   1
| 27>   C  10.88  10.91  9.18  #1
| 28>   H  10.92  10.04  8.45  #2
| 29>   H  11.89  11.21  9.55  #3
| 30>   C  9.86  10.67  10.28  #4
| 31>   H  9.42  11.56  10.58  #5
| 32>   H  9.13  10.01  9.92  #6
| 33>   C  10.39  10.04  11.56  #7
| 34>   H  10.47  8.96  11.33  #8
| 35>   H  9.72  10.18  12.37  #9
| 36>   C  11.75  10.57  12.11  #10
| 37>   H  11.51  11.41  12.78  #11
| 38>   H  12.26  11.11  11.25  #12
| 39>   O  12.57  9.54  12.65  #13
| 40>   H  12.18  9.18  13.4  #14
| 41>   O  10.4  11.96  8.3  #15
| 42>   H  10.25  12.74  8.8  #16
| 43>   O  10.64  14.06  11.92  #17
| 44>   H  10.4  14.32  11.04  #18
| 45>   H  11.59  14.24  12.01  #19
| 46>   O  9.25  13.68  14.32  #20
| 47>   H  9.36  12.72  14.41  #21
| 48>   H  9.65  13.8  13.44  #22
| 49>   O  6.18  10.46  11.32  #23
| 50>   H  6.37  10.41  12.25  #24
| 51>   H  6.42  9.59  10.97  #25
| 52>   O  9.27  7.05  9.33  #26
| 53>   H  10.16  7.09  9.74  #27
| 54>   H  8.73  7.19  10.08  #28
| 55>   O  10.74  7.9  15.41  #29
| 56>   H  11.23  8.08  16.24  #30
| 57>   H  11.38  7.36  14.99  #31
| 58>   O  13.95  8.13  10.72  #32
| 59>   H  14.6  7.73  11.36  #33
| 60>   H  13.48  8.81  11.19  #34
| 61>   O  12.58  6.41  14.16  #35
| 62>   H  13.55  6.27  14.1  #36
| 63>   H  12.4  5.93  15.01  #37
| 64>   O  8.47  5.57  11.86  #38
| 65>   H  8.13  5.1  11.07  #39
| 66>   H  9.4  5.47  11.83  #40
| 67>   O  11.26  8.71  18.08  #41
| 68>   H  10.69  9.46  18.34  #42
| 69>   H  12.13  8.94  18.45  #43
| 70>   O  9.05  5.16  7.52  #44
| 71>   H  9.17  5.81  8.21  #45
| 72>   H  8.41  5.56  6.89  #46
| 73>   O  8.13  11.68  6.49  #47
| 74>   H  8.95  11.81  6.99  #48
| 75>   H  8.48  11.54  5.59  #49
| 76>   O  6.97  7.84  10.25  #50
| 77>   H  7.13  8.01  9.29  #51
| 78>   H  6.1  7.39  10.26  #52
| 79>   O  13.42  13.79  12.43  #53
| 80>   H  13.56  14.7  12.68  #54
| 81>   H  14.22  13.32  12.66  #55
| 82>   O  6.58  13.98  14.94  #56
| 83>   H  6.19  14.51  14.26  #57
| 84>   H  7.47  13.64  14.69  #58
| 85>   O  15.31  10.31  13.02  #59
| 86>   H  15.83  10.14  12.22  #60
| 87>   H  14.36  10.11  12.94  #61
| 88>   O  10.94  7.8  6.94  #62
| 89>   H  10.9  7.88  7.95  #63
| 90>   H  11.32  8.62  6.69  #64
| 91>   O  9.72  14.55  9.35  #65
| 92>   H  9.82  14.74  8.38  #66
| 93>   H  8.82  14.27  9.54  #67
| 94>   O  3.67  11.76  11.07  #68
| 95>   H  3.68  12.49  11.71  #69
| 96>   H  4.55  11.37  11.22  #70
| 97>   O  11.91  6.64  9.53  #71
| 98>   H  12.7  7.12  9.91  #72
| 99>   H  12.28  6.39  8.68  #73
|100>   O  11.18  5.11  11.92  #74
|101>   H  11.53  5.48  11.13  #75
|102>   H  11.68  5.54  12.61  #76
|103>   O  14  13.48  9.61  #77
|104>   H  14.09  14.28  9.08  #78
|105>   H  13.54  13.84  10.39  #79
|106>   O  12.03  10.34  6.11  #80
|107>   H  12.95  10.26  6.05  #81
|108>   H  11.96  11.23  6.46  #82
|109>   O  10.09  15.02  6.64  #83
|110>   H  10.43  15.84  6.32  #84
|111>   H  10.79  14.44  6.52  #85
|112>   O  12.19  13.14  6.54  #86
|113>   H  13.15  13.23  6.38  #87
|114>   H  12.05  13.05  7.49  #88
|115>   O  7.5  13.15  9.95  #89
|116>   H  7.43  12.47  10.63  #90
|117>   H  6.66  12.91  9.5  #91
|118>   O  9.14  15.87  16.21  #92
|119>   H  8.36  15.45  16.71  #93
|120>   H  9.18  15.31  15.44  #94
|121>   O  5.15  10.53  13.94  #95
|122>   H  4.72  9.81  13.55  #96
|123>   H  5.57  10.04  14.61  #97
|124>   O  8.13  8.56  14.59  #98
|125>   H  7.54  7.93  14.17  #99
|126>   H  8.98  8.14  14.78  #100
|127>   O  11.72  13.95  15.52  #101
|128>   H  10.79  13.83  15.25  #102
|129>   H  12.13  14.83  15.22  #103
|130>   O  12.04  5.08  16.57  #104
|131>   H  11.29  5.54  16.84  #105
|132>   H  12.81  5.52  16.99  #106
|133>   O  12.74  16.46  12.64  #107
|134>   H  11.97  16.8  12.15  #108
|135>   H  13.47  16.82  12.15  #109
|136>   O  9.5  10.95  15.1  #110
|137>   H  9.05  10.22  14.77  #111
|138>   H  10.21  10.6  15.62  #112
|139>   Q  0.6645  15.05$  11.1$  7.44$
|140>   Q  0.6645  15.36$  10.28$  6.23$
|141>   Q  -1.3290  14.91$  10.46$  6.96$
|142>   Q  0.6645  3.03$  16.65$  12.36$
|143>   Q  0.6645  3.61$  16.19$  10.97$
|144>   Q  -1.3290  3.01$  16.45$  11.54$
|145>   Q  0.6645  13.66$  13.45$  16.15$
|146>   Q  0.6645  14.41$  12.41$  16.9$
|147>   Q  -1.3290  14.23$  13.18$  16.74$
|148>   Q  0.6645  18.43$  8.36$  12.63$
|149>   Q  0.6645  18.93$  6.78$  12.43$
|150>   Q  -1.3290  18.59$  7.62$  12.22$
|151>   Q  0.6645  8.4$  15.26$  5.44$
|152>   Q  0.6645  7.26$  14.77$  4.63$
|153>   Q  -1.3290  7.72$  15.37$  4.98$
|154>   Q  0.6645  15.7$  13.7$  0.11$
|155>   Q  0.6645  15.24$  13.56$  1.49$
|156>   Q  -1.3290  15.3$  13.93$  0.77$
|157>   Q  0.6645  4.39$  3.89$  6.16$
|158>   Q  0.6645  5.22$  4.63$  5.08$
|159>   Q  -1.3290  4.99$  3.98$  5.56$
|160>   Q  0.6645  8.52$  7.28$  19.99$
|161>   Q  0.6645  8.94$  8.56$  20.84$
|162>   Q  -1.3290  8.4$  7.99$  20.47$
|163>   Q  0.6645  3.72$  15.27$  4.34$
|164>   Q  0.6645  3.44$  16.78$  4.28$
|165>   Q  -1.3290  3.91$  16.1$  4.32$
|166>   Q  0.6645  7.59$  5.03$  1.5$
|167>   Q  0.6645  6.75$  5$  2.75$
|168>   Q  -1.3290  7.25$  4.65$  2.16$
|169>   Q  0.6645  8.29$  12.24$  -0.06$
|170>   Q  0.6645  9.02$  12.88$  1.12$
|171>   Q  -1.3290  8.35$  12.59$  0.7$
|172>   Q  0.6645  4.14$  16.58$  15.13$
|173>   Q  0.6645  3.89$  17.9$  15.86$
|174>   Q  -1.3290  3.68$  17.15$  15.53$
|175>   Q  0.6645  4.44$  4.35$  8.44$
|176>   Q  0.6645  5.23$  3.26$  7.68$
|177>   Q  -1.3290  4.85$  3.64$  8.37$
|178>   Q  0.6645  18.8$  3.43$  14.99$
|179>   Q  0.6645  20.24$  3.54$  15.48$
|180>   Q  -1.3290  19.53$  3.87$  15.23$
|181>   Q  0.6645  1.98$  8.37$  8.14$
|182>   Q  0.6645  2.12$  8.48$  6.7$
|183>   Q  -1.3290  2.36$  8.2$  7.45$
|184>   Q  0.6645  15.42$  11.62$  3.53$
|185>   Q  0.6645  14.27$  12.05$  2.74$
|186>   Q  -1.3290  14.97$  12.19$  3.12$
|187>   Q  0.6645  4.7$  5.58$  11.23$
|188>   Q  0.6645  3.72$  6.46$  10.39$
|189>   Q  -1.3290  4.46$  6.24$  10.75$
|190>   Q  0.6645  3.31$  12.4$  2.53$
|191>   Q  0.6645  3.47$  11.18$  3.55$
|192>   Q  -1.3290  3.09$  11.65$  2.95$
|193>   Q  0.6645  15.01$  5.68$  18.36$
|194>   Q  0.6645  14.48$  7.11$  18.53$
|195>   Q  -1.3290  14.64$  6.41$  18.11$
|196>   Q  0.6645  3.9$  9.4$  7.91$
|197>   Q  0.6645  4.58$  10.01$  6.71$
|198>   Q  -1.3290  4.48$  9.89$  7.52$
|199>   Q  0.6645  12.47$  2.11$  10.56$
|200>   Q  0.6645  12.13$  3.24$  11.63$
|201>   Q  -1.3290  12.39$  2.46$  11.37$
|202>   Q  0.6645  18.26$  12.24$  6.21$
|203>   Q  0.6645  19.06$  11.1$  5.47$
|204>   Q  -1.3290  18.45$  11.44$  5.96$
|205>   Q  0.6645  8.79$  16.17$  9.72$
|206>   Q  0.6645  7.98$  17.45$  9.33$
|207>   Q  -1.3290  8.25$  16.84$  9.86$
|208>   Q  0.6645  18.49$  11.9$  12.67$
|209>   Q  0.6645  19.05$  13.27$  12.25$
|210>   Q  -1.3290  18.64$  12.74$  12.75$
|211>   Q  0.6645  15.33$  12.52$  9.44$
|212>   Q  0.6645  16.19$  11.4$  9.92$
|213>   Q  -1.3290  16$  12.04$  9.43$
|214>   Q  0.6645  18.21$  14.31$  7.47$
|215>   Q  0.6645  17.15$  13.14$  7.86$
|216>   Q  -1.3290  17.58$  13.72$  7.37$
|217>   Q  0.6645  11.78$  3.64$  15.56$
|218>   Q  0.6645  10.68$  3.58$  14.41$
|219>   Q  -1.3290  11.43$  3.37$  14.83$
|220>   Q  0.6645  11.7$  19.58$  14.86$
|221>   Q  0.6645  10.99$  19.41$  13.5$
|222>   Q  -1.3290  11.08$  19.33$  14.34$
|223>   Q  0.6645  8.95$  4.85$  15.31$
|224>   Q  0.6645  8.63$  4.9$  13.74$
|225>   Q  -1.3290  8.91$  4.57$  14.48$
|226>   Q  0.6645  15.52$  2.98$  8.22$
|227>   Q  0.6645  16.55$  3.73$  7.32$
|228>   Q  -1.3290  16.23$  3.08$  7.75$
|229>   Q  0.6645  9.61$  15$  20.67$
|230>   Q  0.6645  9.3$  16.43$  20.37$
|231>   Q  -1.3290  9.14$  15.63$  20.33$
|232>   Q  0.6645  3.22$  5.66$  14.83$
|233>   Q  0.6645  4.64$  6.04$  15.49$
|234>   Q  -1.3290  4.07$  5.82$  14.85$
|235>   Q  0.6645  15.72$  10.88$  14.6$
|236>   Q  0.6645  16.17$  10.94$  16.09$
|237>   Q  -1.3290  16.21$  11.17$  15.3$
|238>   Q  0.6645  13.48$  9.94$  1.42$
|239>   Q  0.6645  14.09$  8.83$  2.32$
|240>   Q  -1.3290  13.73$  9.16$  1.6$
|241>   Q  0.6645  7.97$  15.33$  0.61$
|242>   Q  0.6645  8.96$  15.72$  1.66$
|243>   Q  -1.3290  8.22$  15.77$  1.27$
|244>   Q  0.6645  15.15$  0.97$  9.23$
|245>   Q  0.6645  13.73$  1.23$  8.7$
|246>   Q  -1.3290  14.42$  1.38$  9.16$
|247>   Q  0.6645  12.23$  12.07$  1.48$
|248>   Q  0.6645  13.48$  12.2$  0.44$
|249>   Q  -1.3290  13.01$  11.9$  1.11$
|250>   Q  0.6645  19$  16.25$  8.42$
|251>   Q  0.6645  20.21$  15.44$  8.09$
|252>   Q  -1.3290  19.44$  15.55$  8.39$
|253>   Q  0.6645  13.28$  7.83$  20.65$
|254>   Q  0.6645  13.77$  9.3$  20.76$
|255>   Q  -1.3290  13.45$  8.62$  20.36$
|256>   Q  0.6645  11.26$  1.55$  15.12$
|257>   Q  0.6645  11.8$  0.12$  15.59$
|258>   Q  -1.3290  11.23$  0.73$  15.44$
|259>   Q  0.6645  17.93$  18.12$  9.97$
|260>   Q  0.6645  17.75$  17.18$  11.1$
|261>   Q  -1.3290  17.46$  17.74$  10.53$
|262>   Q  0.6645  13.65$  0.78$  16.53$
|263>   Q  0.6645  13.85$  1.59$  17.79$
|264>   Q  -1.3290  13.5$  1.44$  17.06$
|265>   Q  0.6645  2.98$  8.33$  14.74$
|266>   Q  0.6645  1.92$  8.57$  15.99$
|267>   Q  -1.3290  2.29$  8.63$  15.18$
|268>   Q  0.6645  19.78$  12.44$  14.45$
|269>   Q  0.6645  20.94$  11.38$  14.82$
|270>   Q  -1.3290  20.56$  12.19$  14.7$
|271>   Q  0.6645  1.44$  13.8$  10.67$
|272>   Q  0.6645  2.01$  14.79$  11.62$
|273>   Q  -1.3290  1.53$  14.13$  11.41$
|274>   Q  0.6645  16.43$  7.01$  11.92$
|275>   Q  0.6645  15.62$  5.79$  11.87$
|276>   Q  -1.3290  15.77$  6.58$  12.07$
|277>   Q  0.6645  17.06$  17.43$  18.96$
|278>   Q  0.6645  15.64$  17$  18.18$
|279>   Q  -1.3290  16.2$  17.5$  18.69$
|280>   Q  0.6645  19.15$  9.88$  13.96$
|281>   Q  0.6645  17.74$  10.43$  14.31$
|282>   Q  -1.3290  18.32$  10.06$  13.82$
|283>   Q  0.6645  4.51$  16.2$  8.45$
|284>   Q  0.6645  3.63$  15.97$  7.22$
|285>   Q  -1.3290  4.03$  16.45$  7.8$
|286>   Q  0.6645  14.2$  16.56$  14.14$
|287>   Q  0.6645  15.44$  15.64$  13.71$
|288>   Q  -1.3290  15.04$  16.38$  13.96$
|289>   Q  0.6645  1.47$  6.48$  10.27$
|290>   Q  0.6645  1.68$  7.46$  11.46$
|291>   Q  -1.3290  1.86$  6.79$  10.98$
|292>   Q  0.6645  14.49$  16.55$  10.13$
|293>   Q  0.6645  15.62$  17.36$  10.81$
|294>   Q  -1.3290  14.8$  17.14$  10.68$
|295>   Q  0.6645  2.94$  6.37$  7.35$
|296>   Q  0.6645  2.51$  4.9$  7.02$
|297>   Q  -1.3290  2.91$  5.52$  7.45$
|298>   Q  0.6645  10.62$  13.25$  20.98$
|299>   Q  0.6645  11.38$  14.43$  20.17$
|300>   Q  -1.3290  10.97$  14.01$  20.83$
|301>   Q  0.6645  1.88$  13.02$  8.51$
|302>   Q  0.6645  0.4$  12.55$  8.84$
|303>   Q  -1.3290  1.15$  12.98$  8.93$
|304>   Q  0.6645  4$  13.5$  6.4$
|305>   Q  0.6645  2.53$  13.75$  6.36$
|306>   Q  -1.3290  3.27$  13.7$  6.76$
|307>   Q  0.6645  2.33$  10.51$  10.04$
|308>   Q  0.6645  0.93$  10.44$  9.7$
|309>   Q  -1.3290  1.66$  10.11$  9.82$
|310>   Q  0.6645  6.07$  12.21$  18.97$
|311>   Q  0.6645  6.33$  13.19$  20.13$
|312>   Q  -1.3290  6.3$  12.44$  19.75$
|313>   Q  0.6645  12.1$  5.34$  20.93$
|314>   Q  0.6645  12.06$  6.39$  22.05$
|315>   Q  -1.3290  12.29$  6.08$  21.31$
|316>   Q  0.6645  8.83$  3.92$  2.9$
|317>   Q  0.6645  9.07$  2.56$  3.45$
|318>   Q  -1.3290  9.3$  3.32$  3.23$
|319>   Q  0.6645  9.37$  7.92$  2.9$
|320>   Q  0.6645  8.77$  8.06$  4.32$
|321>   Q  -1.3290  9.03$  8.33$  3.56$
|322>   Q  0.6645  17.81$  3.18$  11.05$
|323>   Q  0.6645  17.88$  4.22$  12.19$
|324>   Q  -1.3290  17.52$  3.61$  11.73$
|325>   Q  0.6645  5.78$  12.72$  4.64$
|326>   Q  0.6645  5.99$  12.31$  6.15$
|327>   Q  -1.3290  5.56$  12.58$  5.45$
|328>   Q  0.6645  13.7$  16.36$  3.26$
|329>   Q  0.6645  15.13$  16.78$  2.57$
|330>   Q  -1.3290  14.37$  16.86$  3.03$
|331>   Q  0.6645  8.14$  1.37$  5.62$
|332>   Q  0.6645  8.16$  1.66$  7.07$
|333>   Q  -1.3290  7.82$  1.32$  6.39$
|334>   Q  0.6645  5.63$  16.66$  3.14$
|335>   Q  0.6645  6.86$  16.92$  2.28$
|336>   Q  -1.3290  6.07$  17.05$  2.54$
|337>   Q  0.6645  11.64$  3.25$  20.2$
|338>   Q  0.6645  11.73$  3.58$  18.68$
|339>   Q  -1.3290  11.73$  3.74$  19.51$
|340>   Q  0.6645  15.5$  4.8$  20.38$
|341>   Q  0.6645  16.24$  4.19$  19.19$
|342>   Q  -1.3290  15.57$  4.46$  19.62$
|343>   Q  0.6645  10.34$  7.01$  18.8$
|344>   Q  0.6645  10.46$  5.63$  19.45$
|345>   Q  -1.3290  10.11$  6.21$  18.95$
|346>   Q  0.6645  18.19$  9.68$  17.65$
|347>   Q  0.6645  18.88$  10.75$  18.42$
|348>   Q  -1.3290  18.5$  10.44$  17.74$
|349>   Q  0.6645  5.92$  6.95$  16.96$
|350>   Q  0.6645  6.19$  5.5$  17.21$
|351>   Q  -1.3290  5.69$  6.17$  17.11$
|352>   Q  0.6645  0.54$  9.22$  12.38$
|353>   Q  0.6645  1.21$  8.52$  13.53$
|354>   Q  -1.3290  0.67$  8.57$  12.88$
|355>   Q  0.6645  6.17$  8.32$  19.92$
|356>   Q  0.6645  5.13$  7.69$  19.15$
|357>   Q  -1.3290  5.65$  8.31$  19.31$
|358>   Q  0.6645  14.8$  6.38$  6.51$
|359>   Q  0.6645  14.13$  5.67$  5.35$
|360>   Q  -1.3290  14.7$  5.79$  5.95$
|361>   Q  0.6645  6.98$  6.54$  12.5$
|362>   Q  0.6645  6.06$  6.12$  13.65$
|363>   Q  -1.3290  6.51$  6.66$  13.19$
|364>   Q  0.6645  16.77$  13.57$  13.25$
|365>   Q  0.6645  16.11$  13.06$  14.46$
|366>   Q  -1.3290  16.24$  13.65$  13.88$
|367>   Q  0.6645  -0.17$  12.06$  12.83$
|368>   Q  0.6645  0.87$  11.55$  11.86$
|369>   Q  -1.3290  0.13$  11.52$  12.22$
|370>   Q  0.6645  3.39$  6.87$  17.83$
|371>   Q  0.6645  2.69$  8.1$  18.51$
|372>   Q  -1.3290  2.77$  7.43$  17.98$
|373>   Q  0.6645  4.86$  11.91$  16.64$
|374>   Q  0.6645  6.18$  12.67$  16.42$
|375>   Q  -1.3290  5.65$  12.11$  16.81$
|376>   Q  0.6645  11.59$  8.21$  1.54$
|377>   Q  0.6645  11.76$  6.88$  2.45$
|378>   Q  -1.3290  11.45$  7.38$  1.82$
|379>   Q  0.6645  4.55$  7.83$  13.41$
|380>   Q  0.6645  3.74$  7.58$  12.13$
|381>   Q  -1.3290  4.09$  8.11$  12.75$
|382>   Q  0.6645  4.33$  5.65$  3.25$
|383>   Q  0.6645  5.25$  6.69$  3.47$
|384>   Q  -1.3290  5$  5.93$  3.58$
|385>   Q  0.6645  17.26$  9.43$  10.39$
|386>   Q  0.6645  15.81$  9.12$  10.12$
|387>   Q  -1.3290  16.44$  9.46$  10.58$
|388>   Q  0.6645  19.48$  7.48$  7.34$
|389>   Q  0.6645  19.02$  6.02$  7.32$
|390>   Q  -1.3290  19.58$  6.63$  7.31$
|391>   Q  0.6645  13.73$  16.73$  8.23$
|392>   Q  0.6645  14.88$  15.94$  7.71$
|393>   Q  -1.3290  14.25$  16.08$  8.24$
|394>   Q  0.6645  5.09$  9.46$  4.53$
|395>   Q  0.6645  3.58$  8.98$  4.93$
|396>   Q  -1.3290  4.28$  9.49$  4.9$
|397>   Q  0.6645  11.01$  20.58$  9.17$
|398>   Q  0.6645  11.46$  20.48$  10.63$
|399>   Q  -1.3290  11.37$  20.21$  9.82$
|400>   Q  0.6645  18.03$  14.43$  16.73$
|401>   Q  0.6645  18.09$  12.82$  17.08$
|402>   Q  -1.3290  17.9$  13.65$  17.17$
|403>   Q  0.6645  11.85$  12.6$  16.9$
|404>   Q  0.6645  12.56$  11.35$  17.51$
|405>   Q  -1.3290  11.9$  11.84$  17.31$
|406>   Q  0.6645  15.53$  14.87$  16.9$
|407>   Q  0.6645  15.23$  16.14$  16.1$
|408>   Q  -1.3290  15.55$  15.7$  16.76$
|409>   Q  0.6645  8.22$  4.08$  17.37$
|410>   Q  0.6645  8.47$  5.45$  17.83$
|411>   Q  -1.3290  8.25$  4.89$  17.27$
|412>   Q  0.6645  4.71$  4.42$  13.17$
|413>   Q  0.6645  5.97$  3.78$  12.64$
|414>   Q  -1.3290  5.21$  4.1$  12.59$
|415>   Q  0.6645  14.42$  2.93$  15.82$
|416>   Q  0.6645  14.65$  2.17$  14.56$
|417>   Q  -1.3290  14.73$  2.86$  15.05$
|418>   Q  0.6645  8.09$  19.31$  4.93$
|419>   Q  0.6645  6.71$  19.21$  4.37$
|420>   Q  -1.3290  7.55$  19.2$  4.34$
|421>   Q  0.6645  7.71$  13.27$  18.59$
|422>   Q  0.6645  9.02$  14.12$  18.43$
|423>   Q  -1.3290  8.31$  13.73$  18.19$
|424>   Q  0.6645  18.32$  9.68$  7.26$
|425>   Q  0.6645  19.07$  9.47$  8.67$
|426>   Q  -1.3290  18.82$  9.28$  7.83$
|427>   Q  0.6645  15.44$  3.8$  11.14$
|428>   Q  0.6645  13.93$  4.16$  10.92$
|429>   Q  -1.3290  14.78$  4.3$  10.93$
|430>   Q  0.6645  6.4$  11.14$  3.03$
|431>   Q  0.6645  6.89$  12.26$  2.05$
|432>   Q  -1.3290  6.43$  11.94$  2.7$
|433>   Q  0.6645  12.14$  3.78$  5.61$
|434>   Q  0.6645  12.06$  2.49$  6.42$
|435>   Q  -1.3290  12.47$  3.07$  5.95$
|436>   Q  0.6645  10.42$  15.87$  17.43$
|437>   Q  0.6645  10.81$  16.7$  18.69$
|438>   Q  -1.3290  10.89$  16.09$  18.08$
|439>   Q  0.6645  17.81$  16.21$  15.63$
|440>   Q  0.6645  17.42$  14.96$  14.92$
|441>   Q  -1.3290  17.96$  15.45$  15.3$
|442>   Q  0.6645  9.83$  10.28$  3.76$
|443>   Q  0.6645  10.61$  10.72$  4.97$
|444>   Q  -1.3290  10.11$  10.85$  4.31$
|445>   Q  0.6645  19.45$  8.77$  10.81$
|446>   Q  0.6645  20.06$  10.23$  10.77$
|447>   Q  -1.3290  19.57$  9.56$  10.52$
|448>   Q  0.6645  9.62$  17.54$  11.33$
|449>   Q  0.6645  10.52$  18.69$  10.92$
|450>   Q  -1.3290  10.29$  18.04$  11.41$
|451>   Q  0.6645  11.59$  22.5$  12.17$
|452>   Q  0.6645  11.6$  21.42$  13.19$
|453>   Q  -1.3290  11.4$  21.76$  12.49$
|454>   Q  0.6645  10.8$  0.92$  7.46$
|455>   Q  0.6645  10.41$  -0.52$  6.76$
|456>   Q  -1.3290  10.87$  0.19$  6.99$
|457>   Q  0.6645  3.71$  18.41$  8.61$
|458>   Q  0.6645  4.13$  19.91$  8.38$
|459>   Q  -1.3290  3.71$  19.25$  8.76$
|460>   Q  0.6645  12.65$  21.17$  7.37$
|461>   Q  0.6645  13.69$  20.72$  8.47$
|462>   Q  -1.3290  13.44$  21.03$  7.7$
|463>   Q  0.6645  16.69$  5.38$  6.17$
|464>   Q  0.6645  17.83$  4.67$  5.5$
|465>   Q  -1.3290  17.43$  5.01$  6.16$
|466>   Q  0.6645  7.75$  4.95$  9.04$
|467>   Q  0.6645  6.57$  4.04$  9.72$
|468>   Q  -1.3290  7.39$  4.28$  9.51$
|469>   Q  0.6645  16.83$  5.6$  15.78$
|470>   Q  0.6645  18.32$  5.11$  16.13$
|471>   Q  -1.3290  17.53$  5.43$  16.3$
|472>   Q  0.6645  8.37$  19.8$  7.26$
|473>   Q  0.6645  9.27$  18.89$  6.26$
|474>   Q  -1.3290  8.96$  19.62$  6.66$
|475>   Q  0.6645  8.91$  1.38$  9.21$
|476>   Q  0.6645  8.57$  2.76$  8.85$
|477>   Q  -1.3290  9$  2.07$  8.75$
|478>   Q  0.6645  16.53$  7.7$  20.96$
|479>   Q  0.6645  17.29$  6.35$  20.7$
|480>   Q  -1.3290  16.84$  7.06$  20.52$
|481>   Q  0.6645  13.86$  4.8$  7.31$
|482>   Q  0.6645  14.35$  4.75$  8.84$
|483>   Q  -1.3290  13.8$  4.76$  8.17$
|484>   Q  0.6645  17.1$  13.32$  19.04$
|485>   Q  0.6645  17.85$  12.48$  20.02$
|486>   Q  -1.3290  17.24$  13.04$  19.82$
|487>   Q  0.6645  5.36$  20.07$  10.84$
|488>   Q  0.6645  6.82$  19.66$  11.12$
|489>   Q  -1.3290  6.19$  20.08$  10.74$
|490>   Q  0.6645  15.31$  8.9$  14.66$
|491>   Q  0.6645  15.15$  7.69$  15.57$
|492>   Q  -1.3290  15.06$  8.5$  15.34$
|493>   Q  0.6645  14.82$  0.71$  12.3$
|494>   Q  0.6645  13.71$  1.64$  12.77$
|495>   Q  -1.3290  14.27$  1.01$  12.86$
|496>   Q  0.6645  20.13$  9.81$  16.4$
|497>   Q  0.6645  20.65$  8.96$  15.28$
|498>   Q  -1.3290  20.58$  9.65$  15.74$
|499>   Q  0.6645  19.82$  4.41$  11.94$
|500>   Q  0.6645  19.8$  5.07$  13.42$
|501>   Q  -1.3290  19.57$  4.92$  12.6$
|502>   Q  0.6645  6.64$  17.35$  5.68$
|503>   Q  0.6645  5.3$  17.5$  6.32$
|504>   Q  -1.3290  6.02$  17.78$  6.06$
|505>   Q  0.6645  18.16$  16.12$  13.3$
|506>   Q  0.6645  19.05$  15.73$  12.03$
|507>   Q  -1.3290  18.5$  16.21$  12.52$
|508>   Q  0.6645  8.13$  10.43$  17.79$
|509>   Q  0.6645  7.35$  9.59$  18.87$
|510>   Q  -1.3290  7.9$  10.16$  18.57$
|511>   Q  0.6645  20.48$  7.4$  13.7$
|512>   Q  0.6645  20.77$  6.84$  15.14$
|513>   Q  -1.3290  20.32$  7.22$  14.55$
|514>   Q  0.6645  12.6$  15.39$  18.6$
|515>   Q  0.6645  13.51$  14.13$  18.75$
|516>   Q  -1.3290  13.11$  14.83$  19.02$
|517>   Q  0.6645  20.15$  14.95$  10.37$
|518>   Q  0.6645  21.16$  14.47$  11.34$
|519>   Q  -1.3290  20.4$  14.54$  11.07$
|520>   Q  0.6645  15.58$  9.68$  0.81$
|521>   Q  0.6645  17.17$  9.91$  0.86$
|522>   Q  -1.3290  16.39$  9.68$  0.5$
|523>   Q  0.6645  5.92$  15.29$  18.08$
|524>   Q  0.6645  6.09$  15.12$  16.62$
|525>   Q  -1.3290  6.04$  15.58$  17.3$
|526>   Q  0.6645  15.37$  12.14$  20.18$
|527>   Q  0.6645  15.62$  10.7$  20.2$
|528>   Q  -1.3290  15.1$  11.36$  20.17$
|529>   Q  0.6645  18.31$  8.02$  2.95$
|530>   Q  0.6645  18.68$  7.26$  4.19$
|531>   Q  -1.3290  18.17$  7.46$  3.56$
|532>   Q  0.6645  10.62$  10.09$  21.25$
|533>   Q  0.6645  11.35$  8.75$  21$
|534>   Q  -1.3290  10.74$  9.26$  21.3$
|535>   Q  0.6645  16.24$  9.52$  4.35$
|536>   Q  0.6645  16.96$  10.58$  5.16$
|537>   Q  -1.3290  16.33$  10.26$  4.74$
|538>   Q  0.6645  10.54$  16.31$  3.15$
|539>   Q  0.6645  11.3$  16.07$  1.84$
|540>   Q  -1.3290  10.87$  15.85$  2.52$
|541>   Q  0.6645  15.73$  6.24$  13.99$
|542>   Q  0.6645  15.2$  4.82$  14.68$
|543>   Q  -1.3290  15.41$  5.7$  14.65$
|544>   Q  0.6645  17.43$  2.44$  13.44$
|545>   Q  0.6645  16.93$  2.37$  14.85$
|546>   Q  -1.3290  17.5$  2.28$  14.25$
|547>   Q  0.6645  4.25$  14.73$  13.31$
|548>   Q  0.6645  5.14$  15.74$  12.5$
|549>   Q  -1.3290  4.8$  15.41$  13.21$
|550>   Q  0.6645  7.43$  1.62$  13.75$
|551>   Q  0.6645  7.64$  3.08$  14.18$
|552>   Q  -1.3290  7.19$  2.42$  13.94$
|553>   Q  0.6645  6.27$  9.5$  7.51$
|554>   Q  0.6645  7.52$  10.07$  7.16$
|555>   Q  -1.3290  7.09$  9.46$  7.42$
|556>   Q  0.6645  6.94$  9.03$  15.76$
|557>   Q  0.6645  5.72$  9.26$  16.71$
|558>   Q  -1.3290  6.13$  9.02$  16$
|559>   Q  0.6645  4.71$  13.87$  1.91$
|560>   Q  0.6645  3.53$  14.83$  1.72$
|561>   Q  -1.3290  3.89$  14.06$  1.83$
|562>   Q  0.6645  10.92$  11.69$  19.32$
|563>   Q  0.6645  9.42$  11.16$  19.48$
|564>   Q  -1.3290  10.21$  11.43$  19.73$
|565>   Q  0.6645  7.89$  7.88$  6.33$
|566>   Q  0.6645  9.33$  7.55$  6.23$
|567>   Q  -1.3290  8.53$  7.43$  6.04$
|568>   Q  0.6645  16.66$  16.86$  5.72$
|569>   Q  0.6645  15.45$  17.13$  4.92$
|570>   Q  -1.3290  15.88$  17.09$  5.63$
|571>   Q  0.6645  14.26$  9.66$  16.66$
|572>   Q  0.6645  14.21$  10.37$  18.09$
|573>   Q  -1.3290  14.11$  10.31$  17.25$
|574>   Q  0.6645  9.94$  18.67$  15.69$
|575>   Q  0.6645  8.99$  17.61$  16.23$
|576>   Q  -1.3290  9.38$  18.37$  16.24$
|577>   Q  0.6645  10.87$  2.63$  8.74$
|578>   Q  0.6645  12.19$  3.51$  8.37$
|579>   Q  -1.3290  11.69$  2.84$  8.61$
|580>   Q  0.6645  5.54$  14.93$  10.62$
|581>   Q  0.6645  6.31$  16.12$  10.29$
|582>   Q  -1.3290  5.64$  15.75$  10.61$
|583>   Q  0.6645  12.12$  17.02$  16.34$
|584>   Q  0.6645  12.31$  17.42$  14.9$
|585>   Q  -1.3290  12.43$  16.94$  15.55$
|586>   Q  0.6645  16.84$  8.14$  8.18$
|587>   Q  0.6645  15.48$  8.72$  7.62$
|588>   Q  -1.3290  16.06$  8.1$  7.86$
|589>   Q  0.6645  17.63$  2.94$  17.98$
|590>   Q  0.6645  17.78$  4.52$  17.89$
|591>   Q  -1.3290  17.84$  3.72$  18.23$
|592>   Q  0.6645  19.66$  5.89$  19.32$
|593>   Q  0.6645  19.06$  6.96$  18.31$
|594>   Q  -1.3290  19.63$  6.42$  18.6$
|595>   Q  0.6645  12.42$  18.59$  8.79$
|596>   Q  0.6645  13.37$  18.85$  7.7$
|597>   Q  -1.3290  12.73$  18.46$  8.06$
|598>   Q  0.6645  6.6$  19.07$  9.04$
|599>   Q  0.6645  6.64$  18.54$  7.63$
|600>   Q  -1.3290  6.95$  18.76$  8.36$
|601>   Q  0.6645  10.11$  5.21$  6.07$
|602>   Q  0.6645  10.04$  4.48$  4.71$
|603>   Q  -1.3290  10.39$  4.97$  5.31$
|604>   Q  0.6645  11.35$  17.97$  6.48$
|605>   Q  0.6645  10.87$  18.24$  5.02$
|606>   Q  -1.3290  10.84$  17.91$  5.82$
|607>   Q  0.6645  7.68$  18.47$  12.98$
|608>   Q  0.6645  6.54$  19.4$  13.6$
|609>   Q  -1.3290  7.33$  19.2$  13.28$
|610>   Q  0.6645  16.12$  7.61$  3.56$
|611>   Q  0.6645  14.75$  7.27$  4$
|612>   Q  -1.3290  15.32$  7.77$  3.68$
|613>   Q  0.6645  15.01$  18.88$  9.81$
|614>   Q  0.6645  15.78$  20.16$  9.19$
|615>   Q  -1.3290  15.12$  19.71$  9.54$
|616>   Q  0.6645  2.81$  10.97$  15.85$
|617>   Q  0.6645  2.42$  12.38$  16.27$
|618>   Q  -1.3290  2.78$  11.64$  16.38$
|619>   Q  0.6645  17.05$  7.72$  18.6$
|620>   Q  0.6645  17.57$  7.36$  17.15$
|621>   Q  -1.3290  17.45$  7.88$  17.82$
|622>   Q  0.6645  4.34$  12.75$  9.9$
|623>   Q  0.6645  4.49$  13.44$  8.51$
|624>   Q  -1.3290  4.69$  13.26$  9.33$
|625>   Q  0.6645  7.06$  8.68$  3.16$
|626>   Q  0.6645  5.73$  8.87$  2.27$
|627>   Q  -1.3290  6.24$  8.92$  3.02$
|628>   Q  0.6645  12.05$  5.8$  4.48$
|629>   Q  0.6645  13.01$  5.21$  3.32$
|630>   Q  -1.3290  12.73$  5.73$  3.96$
|631>   Q  0.6645  15.07$  13.12$  4.88$
|632>   Q  0.6645  15.93$  13.78$  5.97$
|633>   Q  -1.3290  15.19$  13.54$  5.6$
|634>   Q  0.6645  11.08$  13.82$  2.46$
|635>   Q  0.6645  10.54$  12.44$  3.04$
|636>   Q  -1.3290  10.8$  12.99$  2.44$
|637>   Q  0.6645  9.27$  6.6$  1.03$
|638>   Q  0.6645  7.88$  7.27$  0.8$
|639>   Q  -1.3290  8.46$  6.77$  1.2$
|640>   Q  0.6645  4.11$  12.32$  13.87$
|641>   Q  0.6645  2.73$  13.04$  14.33$
|642>   Q  -1.3290  3.51$  12.96$  13.98$
|643>   Q  0.6645  11.79$  19.43$  3.48$
|644>   Q  0.6645  10.27$  19.27$  2.88$
|645>   Q  -1.3290  10.97$  19.08$  3.37$
|646>   Q  0.6645  16.21$  19.32$  14.67$
|647>   Q  0.6645  15.24$  18.09$  14.75$
|648>   Q  -1.3290  15.59$  18.82$  15.05$
|649> *
|650> 
|651>                          ****END OF INPUT****
================================================================================

                     *******************************
                     * Energy+Gradient Calculation *
                     *******************************

---------------------------------
CARTESIAN COORDINATES (ANGSTROEM)
---------------------------------
  C     10.880000   10.910000    9.180000
  H     10.920000   10.040000    8.450000
  H     11.890000   11.210000    9.550000
  C      9.860000   10.670000   10.280000
  H      9.420000   11.560000   10.580000
  H      9.130000   10.010000    9.920000
  C     10.390000   10.040000   11.560000
  H     10.470000    8.960000   11.330000
  H      9.720000   10.180000   12.370000
  C     11.750000   10.570000   12.110000
  H     11.510000   11.410000   12.780000
  H     12.260000   11.110000   11.250000
  O     12.570000    9.540000   12.650000
  H     12.180000    9.180000   13.400000
  O     10.400000   11.960000    8.300000
  H     10.250000   12.740000    8.800000
  O     10.640000   14.060000   11.920000
  H     10.400000   14.320000   11.040000
  H     11.590000   14.240000   12.010000
  O      9.250000   13.680000   14.320000
  H      9.360000   12.720000   14.410000
  H      9.650000   13.800000   13.440000
  O      6.180000   10.460000   11.320000
  H      6.370000   10.410000   12.250000
  H      6.420000    9.590000   10.970000
  O      9.270000    7.050000    9.330000
  H     10.160000    7.090000    9.740000
  H      8.730000    7.190000   10.080000
  O     10.740000    7.900000   15.410000
  H     11.230000    8.080000   16.240000
  H     11.380000    7.360000   14.990000
  O     13.950000    8.130000   10.720000
  H     14.600000    7.730000   11.360000
  H     13.480000    8.810000   11.190000
  O     12.580000    6.410000   14.160000
  H     13.550000    6.270000   14.100000
  H     12.400000    5.930000   15.010000
  O      8.470000    5.570000   11.860000
  H      8.130000    5.100000   11.070000
  H      9.400000    5.470000   11.830000
  O     11.260000    8.710000   18.080000
  H     10.690000    9.460000   18.340000
  H     12.130000    8.940000   18.450000
  O      9.050000    5.160000    7.520000
  H      9.170000    5.810000    8.210000
  H      8.410000    5.560000    6.890000
  O      8.130000   11.680000    6.490000
  H      8.950000   11.810000    6.990000
  H      8.480000   11.540000    5.590000
  O      6.970000    7.840000   10.250000
  H      7.130000    8.010000    9.290000
  H      6.100000    7.390000   10.260000
  O     13.420000   13.790000   12.430000
  H     13.560000   14.700000   12.680000
  H     14.220000   13.320000   12.660000
  O      6.580000   13.980000   14.940000
  H      6.190000   14.510000   14.260000
  H      7.470000   13.640000   14.690000
  O     15.310000   10.310000   13.020000
  H     15.830000   10.140000   12.220000
  H     14.360000   10.110000   12.940000
  O     10.940000    7.800000    6.940000
  H     10.900000    7.880000    7.950000
  H     11.320000    8.620000    6.690000
  O      9.720000   14.550000    9.350000
  H      9.820000   14.740000    8.380000
  H      8.820000   14.270000    9.540000
  O      3.670000   11.760000   11.070000
  H      3.680000   12.490000   11.710000
  H      4.550000   11.370000   11.220000
  O     11.910000    6.640000    9.530000
  H     12.700000    7.120000    9.910000
  H     12.280000    6.390000    8.680000
  O     11.180000    5.110000   11.920000
  H     11.530000    5.480000   11.130000
  H     11.680000    5.540000   12.610000
  O     14.000000   13.480000    9.610000
  H     14.090000   14.280000    9.080000
  H     13.540000   13.840000   10.390000
  O     12.030000   10.340000    6.110000
  H     12.950000   10.260000    6.050000
  H     11.960000   11.230000    6.460000
  O     10.090000   15.020000    6.640000
  H     10.430000   15.840000    6.320000
  H     10.790000   14.440000    6.520000
  O     12.190000   13.140000    6.540000
  H     13.150000   13.230000    6.380000
  H     12.050000   13.050000    7.490000
  O      7.500000   13.150000    9.950000
  H      7.430000   12.470000   10.630000
  H      6.660000   12.910000    9.500000
  O      9.140000   15.870000   16.210000
  H      8.360000   15.450000   16.710000
  H      9.180000   15.310000   15.440000
  O      5.150000   10.530000   13.940000
  H      4.720000    9.810000   13.550000
  H      5.570000   10.040000   14.610000
  O      8.130000    8.560000   14.590000
  H      7.540000    7.930000   14.170000
  H      8.980000    8.140000   14.780000
  O     11.720000   13.950000   15.520000
  H     10.790000   13.830000   15.250000
  H     12.130000   14.830000   15.220000
  O     12.040000    5.080000   16.570000
  H     11.290000    5.540000   16.840000
  H     12.810000    5.520000   16.990000
  O     12.740000   16.460000   12.640000
  H     11.970000   16.800000   12.150000
  H     13.470000   16.820000   12.150000
  O      9.500000   10.950000   15.100000
  H      9.050000   10.220000   14.770000
  H     10.210000   10.600000   15.620000
  Q     15.050000   11.100000    7.440000
  Q     15.360000   10.280000    6.230000
  Q     14.910000   10.460000    6.960000
  Q      3.030000   16.650000   12.360000
  Q      3.610000   16.190000   10.970000
  Q      3.010000   16.450000   11.540000
  Q     13.660000   13.450000   16.150000
  Q     14.410000   12.410000   16.900000
  Q     14.230000   13.180000   16.740000
  Q     18.430000    8.360000   12.630000
  Q     18.930000    6.780000   12.430000
  Q     18.590000    7.620000   12.220000
  Q      8.400000   15.260000    5.440000
  Q      7.260000   14.770000    4.630000
  Q      7.720000   15.370000    4.980000
  Q     15.700000   13.700000    0.110000
  Q     15.240000   13.560000    1.490000
  Q     15.300000   13.930000    0.770000
  Q      4.390000    3.890000    6.160000
  Q      5.220000    4.630000    5.080000
  Q      4.990000    3.980000    5.560000
  Q      8.520000    7.280000   19.990000
  Q      8.940000    8.560000   20.840000
  Q      8.400000    7.990000   20.470000
  Q      3.720000   15.270000    4.340000
  Q      3.440000   16.780000    4.280000
  Q      3.910000   16.100000    4.320000
  Q      7.590000    5.030000    1.500000
  Q      6.750000    5.000000    2.750000
  Q      7.250000    4.650000    2.160000
  Q      8.290000   12.240000   -0.060000
  Q      9.020000   12.880000    1.120000
  Q      8.350000   12.590000    0.700000
  Q      4.140000   16.580000   15.130000
  Q      3.890000   17.900000   15.860000
  Q      3.680000   17.150000   15.530000
  Q      4.440000    4.350000    8.440000
  Q      5.230000    3.260000    7.680000
  Q      4.850000    3.640000    8.370000
  Q     18.800000    3.430000   14.990000
  Q     20.240000    3.540000   15.480000
  Q     19.530000    3.870000   15.230000
  Q      1.980000    8.370000    8.140000
  Q      2.120000    8.480000    6.700000
  Q      2.360000    8.200000    7.450000
  Q     15.420000   11.620000    3.530000
  Q     14.270000   12.050000    2.740000
  Q     14.970000   12.190000    3.120000
  Q      4.700000    5.580000   11.230000
  Q      3.720000    6.460000   10.390000
  Q      4.460000    6.240000   10.750000
  Q      3.310000   12.400000    2.530000
  Q      3.470000   11.180000    3.550000
  Q      3.090000   11.650000    2.950000
  Q     15.010000    5.680000   18.360000
  Q     14.480000    7.110000   18.530000
  Q     14.640000    6.410000   18.110000
  Q      3.900000    9.400000    7.910000
  Q      4.580000   10.010000    6.710000
  Q      4.480000    9.890000    7.520000
  Q     12.470000    2.110000   10.560000
  Q     12.130000    3.240000   11.630000
  Q     12.390000    2.460000   11.370000
  Q     18.260000   12.240000    6.210000
  Q     19.060000   11.100000    5.470000
  Q     18.450000   11.440000    5.960000
  Q      8.790000   16.170000    9.720000
  Q      7.980000   17.450000    9.330000
  Q      8.250000   16.840000    9.860000
  Q     18.490000   11.900000   12.670000
  Q     19.050000   13.270000   12.250000
  Q     18.640000   12.740000   12.750000
  Q     15.330000   12.520000    9.440000
  Q     16.190000   11.400000    9.920000
  Q     16.000000   12.040000    9.430000
  Q     18.210000   14.310000    7.470000
  Q     17.150000   13.140000    7.860000
  Q     17.580000   13.720000    7.370000
  Q     11.780000    3.640000   15.560000
  Q     10.680000    3.580000   14.410000
  Q     11.430000    3.370000   14.830000
  Q     11.700000   19.580000   14.860000
  Q     10.990000   19.410000   13.500000
  Q     11.080000   19.330000   14.340000
  Q      8.950000    4.850000   15.310000
  Q      8.630000    4.900000   13.740000
  Q      8.910000    4.570000   14.480000
  Q     15.520000    2.980000    8.220000
  Q     16.550000    3.730000    7.320000
  Q     16.230000    3.080000    7.750000
  Q      9.610000   15.000000   20.670000
  Q      9.300000   16.430000   20.370000
  Q      9.140000   15.630000   20.330000
  Q      3.220000    5.660000   14.830000
  Q      4.640000    6.040000   15.490000
  Q      4.070000    5.820000   14.850000
  Q     15.720000   10.880000   14.600000
  Q     16.170000   10.940000   16.090000
  Q     16.210000   11.170000   15.300000
  Q     13.480000    9.940000    1.420000
  Q     14.090000    8.830000    2.320000
  Q     13.730000    9.160000    1.600000
  Q      7.970000   15.330000    0.610000
  Q      8.960000   15.720000    1.660000
  Q      8.220000   15.770000    1.270000
  Q     15.150000    0.970000    9.230000
  Q     13.730000    1.230000    8.700000
  Q     14.420000    1.380000    9.160000
  Q     12.230000   12.070000    1.480000
  Q     13.480000   12.200000    0.440000
  Q     13.010000   11.900000    1.110000
  Q     19.000000   16.250000    8.420000
  Q     20.210000   15.440000    8.090000
  Q     19.440000   15.550000    8.390000
  Q     13.280000    7.830000   20.650000
  Q     13.770000    9.300000   20.760000
  Q     13.450000    8.620000   20.360000
  Q     11.260000    1.550000   15.120000
  Q     11.800000    0.120000   15.590000
  Q     11.230000    0.730000   15.440000
  Q     17.930000   18.120000    9.970000
  Q     17.750000   17.180000   11.100000
  Q     17.460000   17.740000   10.530000
  Q     13.650000    0.780000   16.530000
  Q     13.850000    1.590000   17.790000
  Q     13.500000    1.440000   17.060000
  Q      2.980000    8.330000   14.740000
  Q      1.920000    8.570000   15.990000
  Q      2.290000    8.630000   15.180000
  Q     19.780000   12.440000   14.450000
  Q     20.940000   11.380000   14.820000
  Q     20.560000   12.190000   14.700000
  Q      1.440000   13.800000   10.670000
  Q      2.010000   14.790000   11.620000
  Q      1.530000   14.130000   11.410000
  Q     16.430000    7.010000   11.920000
  Q     15.620000    5.790000   11.870000
  Q     15.770000    6.580000   12.070000
  Q     17.060000   17.430000   18.960000
  Q     15.640000   17.000000   18.180000
  Q     16.200000   17.500000   18.690000
  Q     19.150000    9.880000   13.960000
  Q     17.740000   10.430000   14.310000
  Q     18.320000   10.060000   13.820000
  Q      4.510000   16.200000    8.450000
  Q      3.630000   15.970000    7.220000
  Q      4.030000   16.450000    7.800000
  Q     14.200000   16.560000   14.140000
  Q     15.440000   15.640000   13.710000
  Q     15.040000   16.380000   13.960000
  Q      1.470000    6.480000   10.270000
  Q      1.680000    7.460000   11.460000
  Q      1.860000    6.790000   10.980000
  Q     14.490000   16.550000   10.130000
  Q     15.620000   17.360000   10.810000
  Q     14.800000   17.140000   10.680000
  Q      2.940000    6.370000    7.350000
  Q      2.510000    4.900000    7.020000
  Q      2.910000    5.520000    7.450000
  Q     10.620000   13.250000   20.980000
  Q     11.380000   14.430000   20.170000
  Q     10.970000   14.010000   20.830000
  Q      1.880000   13.020000    8.510000
  Q      0.400000   12.550000    8.840000
  Q      1.150000   12.980000    8.930000
  Q      4.000000   13.500000    6.400000
  Q      2.530000   13.750000    6.360000
  Q      3.270000   13.700000    6.760000
  Q      2.330000   10.510000   10.040000
  Q      0.930000   10.440000    9.700000
  Q      1.660000   10.110000    9.820000
  Q      6.070000   12.210000   18.970000
  Q      6.330000   13.190000   20.130000
  Q      6.300000   12.440000   19.750000
  Q     12.100000    5.340000   20.930000
  Q     12.060000    6.390000   22.050000
  Q     12.290000    6.080000   21.310000
  Q      8.830000    3.920000    2.900000
  Q      9.070000    2.560000    3.450000
  Q      9.300000    3.320000    3.230000
  Q      9.370000    7.920000    2.900000
  Q      8.770000    8.060000    4.320000
  Q      9.030000    8.330000    3.560000
  Q     17.810000    3.180000   11.050000
  Q     17.880000    4.220000   12.190000
  Q     17.520000    3.610000   11.730000
  Q      5.780000   12.720000    4.640000
  Q      5.990000   12.310000    6.150000
  Q      5.560000   12.580000    5.450000
  Q     13.700000   16.360000    3.260000
  Q     15.130000   16.780000    2.570000
  Q     14.370000   16.860000    3.030000
  Q      8.140000    1.370000    5.620000
  Q      8.160000    1.660000    7.070000
  Q      7.820000    1.320000    6.390000
  Q      5.630000   16.660000    3.140000
  Q      6.860000   16.920000    2.280000
  Q      6.070000   17.050000    2.540000
  Q     11.640000    3.250000   20.200000
  Q     11.730000    3.580000   18.680000
  Q     11.730000    3.740000   19.510000
  Q     15.500000    4.800000   20.380000
  Q     16.240000    4.190000   19.190000
  Q     15.570000    4.460000   19.620000
  Q     10.340000    7.010000   18.800000
  Q     10.460000    5.630000   19.450000
  Q     10.110000    6.210000   18.950000
  Q     18.190000    9.680000   17.650000
  Q     18.880000   10.750000   18.420000
  Q     18.500000   10.440000   17.740000
  Q      5.920000    6.950000   16.960000
  Q      6.190000    5.500000   17.210000
  Q      5.690000    6.170000   17.110000
  Q      0.540000    9.220000   12.380000
  Q      1.210000    8.520000   13.530000
  Q      0.670000    8.570000   12.880000
  Q      6.170000    8.320000   19.920000
  Q      5.130000    7.690000   19.150000
  Q      5.650000    8.310000   19.310000
  Q     14.800000    6.380000    6.510000
  Q     14.130000    5.670000    5.350000
  Q     14.700000    5.790000    5.950000
  Q      6.980000    6.540000   12.500000
  Q      6.060000    6.120000   13.650000
  Q      6.510000    6.660000   13.190000
  Q     16.770000   13.570000   13.250000
  Q     16.110000   13.060000   14.460000
  Q     16.240000   13.650000   13.880000
  Q     -0.170000   12.060000   12.830000
  Q      0.870000   11.550000   11.860000
  Q      0.130000   11.520000   12.220000
  Q      3.390000    6.870000   17.830000
  Q      2.690000    8.100000   18.510000
  Q      2.770000    7.430000   17.980000
  Q      4.860000   11.910000   16.640000
  Q      6.180000   12.670000   16.420000
  Q      5.650000   12.110000   16.810000
  Q     11.590000    8.210000    1.540000
  Q     11.760000    6.880000    2.450000
  Q     11.450000    7.380000    1.820000
  Q      4.550000    7.830000   13.410000
  Q      3.740000    7.580000   12.130000
  Q      4.090000    8.110000   12.750000
  Q      4.330000    5.650000    3.250000
  Q      5.250000    6.690000    3.470000
  Q      5.000000    5.930000    3.580000
  Q     17.260000    9.430000   10.390000
  Q     15.810000    9.120000   10.120000
  Q     16.440000    9.460000   10.580000
  Q     19.480000    7.480000    7.340000
  Q     19.020000    6.020000    7.320000
  Q     19.580000    6.630000    7.310000
  Q     13.730000   16.730000    8.230000
  Q     14.880000   15.940000    7.710000
  Q     14.250000   16.080000    8.240000
  Q      5.090000    9.460000    4.530000
  Q      3.580000    8.980000    4.930000
  Q      4.280000    9.490000    4.900000
  Q     11.010000   20.580000    9.170000
  Q     11.460000   20.480000   10.630000
  Q     11.370000   20.210000    9.820000
  Q     18.030000   14.430000   16.730000
  Q     18.090000   12.820000   17.080000
  Q     17.900000   13.650000   17.170000
  Q     11.850000   12.600000   16.900000
  Q     12.560000   11.350000   17.510000
  Q     11.900000   11.840000   17.310000
  Q     15.530000   14.870000   16.900000
  Q     15.230000   16.140000   16.100000
  Q     15.550000   15.700000   16.760000
  Q      8.220000    4.080000   17.370000
  Q      8.470000    5.450000   17.830000
  Q      8.250000    4.890000   17.270000
  Q      4.710000    4.420000   13.170000
  Q      5.970000    3.780000   12.640000
  Q      5.210000    4.100000   12.590000
  Q     14.420000    2.930000   15.820000
  Q     14.650000    2.170000   14.560000
  Q     14.730000    2.860000   15.050000
  Q      8.090000   19.310000    4.930000
  Q      6.710000   19.210000    4.370000
  Q      7.550000   19.200000    4.340000
  Q      7.710000   13.270000   18.590000
  Q      9.020000   14.120000   18.430000
  Q      8.310000   13.730000   18.190000
  Q     18.320000    9.680000    7.260000
  Q     19.070000    9.470000    8.670000
  Q     18.820000    9.280000    7.830000
  Q     15.440000    3.800000   11.140000
  Q     13.930000    4.160000   10.920000
  Q     14.780000    4.300000   10.930000
  Q      6.400000   11.140000    3.030000
  Q      6.890000   12.260000    2.050000
  Q      6.430000   11.940000    2.700000
  Q     12.140000    3.780000    5.610000
  Q     12.060000    2.490000    6.420000
  Q     12.470000    3.070000    5.950000
  Q     10.420000   15.870000   17.430000
  Q     10.810000   16.700000   18.690000
  Q     10.890000   16.090000   18.080000
  Q     17.810000   16.210000   15.630000
  Q     17.420000   14.960000   14.920000
  Q     17.960000   15.450000   15.300000
  Q      9.830000   10.280000    3.760000
  Q     10.610000   10.720000    4.970000
  Q     10.110000   10.850000    4.310000
  Q     19.450000    8.770000   10.810000
  Q     20.060000   10.230000   10.770000
  Q     19.570000    9.560000   10.520000
  Q      9.620000   17.540000   11.330000
  Q     10.520000   18.690000   10.920000
  Q     10.290000   18.040000   11.410000
  Q     11.590000   22.500000   12.170000
  Q     11.600000   21.420000   13.190000
  Q     11.400000   21.760000   12.490000
  Q     10.800000    0.920000    7.460000
  Q     10.410000   -0.520000    6.760000
  Q     10.870000    0.190000    6.990000
  Q      3.710000   18.410000    8.610000
  Q      4.130000   19.910000    8.380000
  Q      3.710000   19.250000    8.760000
  Q     12.650000   21.170000    7.370000
  Q     13.690000   20.720000    8.470000
  Q     13.440000   21.030000    7.700000
  Q     16.690000    5.380000    6.170000
  Q     17.830000    4.670000    5.500000
  Q     17.430000    5.010000    6.160000
  Q      7.750000    4.950000    9.040000
  Q      6.570000    4.040000    9.720000
  Q      7.390000    4.280000    9.510000
  Q     16.830000    5.600000   15.780000
  Q     18.320000    5.110000   16.130000
  Q     17.530000    5.430000   16.300000
  Q      8.370000   19.800000    7.260000
  Q      9.270000   18.890000    6.260000
  Q      8.960000   19.620000    6.660000
  Q      8.910000    1.380000    9.210000
  Q      8.570000    2.760000    8.850000
  Q      9.000000    2.070000    8.750000
  Q     16.530000    7.700000   20.960000
  Q     17.290000    6.350000   20.700000
  Q     16.840000    7.060000   20.520000
  Q     13.860000    4.800000    7.310000
  Q     14.350000    4.750000    8.840000
  Q     13.800000    4.760000    8.170000
  Q     17.100000   13.320000   19.040000
  Q     17.850000   12.480000   20.020000
  Q     17.240000   13.040000   19.820000
  Q      5.360000   20.070000   10.840000
  Q      6.820000   19.660000   11.120000
  Q      6.190000   20.080000   10.740000
  Q     15.310000    8.900000   14.660000
  Q     15.150000    7.690000   15.570000
  Q     15.060000    8.500000   15.340000
  Q     14.820000    0.710000   12.300000
  Q     13.710000    1.640000   12.770000
  Q     14.270000    1.010000   12.860000
  Q     20.130000    9.810000   16.400000
  Q     20.650000    8.960000   15.280000
  Q     20.580000    9.650000   15.740000
  Q     19.820000    4.410000   11.940000
  Q     19.800000    5.070000   13.420000
  Q     19.570000    4.920000   12.600000
  Q      6.640000   17.350000    5.680000
  Q      5.300000   17.500000    6.320000
  Q      6.020000   17.780000    6.060000
  Q     18.160000   16.120000   13.300000
  Q     19.050000   15.730000   12.030000
  Q     18.500000   16.210000   12.520000
  Q      8.130000   10.430000   17.790000
  Q      7.350000    9.590000   18.870000
  Q      7.900000   10.160000   18.570000
  Q     20.480000    7.400000   13.700000
  Q     20.770000    6.840000   15.140000
  Q     20.320000    7.220000   14.550000
  Q     12.600000   15.390000   18.600000
  Q     13.510000   14.130000   18.750000
  Q     13.110000   14.830000   19.020000
  Q     20.150000   14.950000   10.370000
  Q     21.160000   14.470000   11.340000
  Q     20.400000   14.540000   11.070000
  Q     15.580000    9.680000    0.810000
  Q     17.170000    9.910000    0.860000
  Q     16.390000    9.680000    0.500000
  Q      5.920000   15.290000   18.080000
  Q      6.090000   15.120000   16.620000
  Q      6.040000   15.580000   17.300000
  Q     15.370000   12.140000   20.180000
  Q     15.620000   10.700000   20.200000
  Q     15.100000   11.360000   20.170000
  Q     18.310000    8.020000    2.950000
  Q     18.680000    7.260000    4.190000
  Q     18.170000    7.460000    3.560000
  Q     10.620000   10.090000   21.250000
  Q     11.350000    8.750000   21.000000
  Q     10.740000    9.260000   21.300000
  Q     16.240000    9.520000    4.350000
  Q     16.960000   10.580000    5.160000
  Q     16.330000   10.260000    4.740000
  Q     10.540000   16.310000    3.150000
  Q     11.300000   16.070000    1.840000
  Q     10.870000   15.850000    2.520000
  Q     15.730000    6.240000   13.990000
  Q     15.200000    4.820000   14.680000
  Q     15.410000    5.700000   14.650000
  Q     17.430000    2.440000   13.440000
  Q     16.930000    2.370000   14.850000
  Q     17.500000    2.280000   14.250000
  Q      4.250000   14.730000   13.310000
  Q      5.140000   15.740000   12.500000
  Q      4.800000   15.410000   13.210000
  Q      7.430000    1.620000   13.750000
  Q      7.640000    3.080000   14.180000
  Q      7.190000    2.420000   13.940000
  Q      6.270000    9.500000    7.510000
  Q      7.520000   10.070000    7.160000
  Q      7.090000    9.460000    7.420000
  Q      6.940000    9.030000   15.760000
  Q      5.720000    9.260000   16.710000
  Q      6.130000    9.020000   16.000000
  Q      4.710000   13.870000    1.910000
  Q      3.530000   14.830000    1.720000
  Q      3.890000   14.060000    1.830000
  Q     10.920000   11.690000   19.320000
  Q      9.420000   11.160000   19.480000
  Q     10.210000   11.430000   19.730000
  Q      7.890000    7.880000    6.330000
  Q      9.330000    7.550000    6.230000
  Q      8.530000    7.430000    6.040000
  Q     16.660000   16.860000    5.720000
  Q     15.450000   17.130000    4.920000
  Q     15.880000   17.090000    5.630000
  Q     14.260000    9.660000   16.660000
  Q     14.210000   10.370000   18.090000
  Q     14.110000   10.310000   17.250000
  Q      9.940000   18.670000   15.690000
  Q      8.990000   17.610000   16.230000
  Q      9.380000   18.370000   16.240000
  Q     10.870000    2.630000    8.740000
  Q     12.190000    3.510000    8.370000
  Q     11.690000    2.840000    8.610000
  Q      5.540000   14.930000   10.620000
  Q      6.310000   16.120000   10.290000
  Q      5.640000   15.750000   10.610000
  Q     12.120000   17.020000   16.340000
  Q     12.310000   17.420000   14.900000
  Q     12.430000   16.940000   15.550000
  Q     16.840000    8.140000    8.180000
  Q     15.480000    8.720000    7.620000
  Q     16.060000    8.100000    7.860000
  Q     17.630000    2.940000   17.980000
  Q     17.780000    4.520000   17.890000
  Q     17.840000    3.720000   18.230000
  Q     19.660000    5.890000   19.320000
  Q     19.060000    6.960000   18.310000
  Q     19.630000    6.420000   18.600000
  Q     12.420000   18.590000    8.790000
  Q     13.370000   18.850000    7.700000
  Q     12.730000   18.460000    8.060000
  Q      6.600000   19.070000    9.040000
  Q      6.640000   18.540000    7.630000
  Q      6.950000   18.760000    8.360000
  Q     10.110000    5.210000    6.070000
  Q     10.040000    4.480000    4.710000
  Q     10.390000    4.970000    5.310000
  Q     11.350000   17.970000    6.480000
  Q     10.870000   18.240000    5.020000
  Q     10.840000   17.910000    5.820000
  Q      7.680000   18.470000   12.980000
  Q      6.540000   19.400000   13.600000
  Q      7.330000   19.200000   13.280000
  Q     16.120000    7.610000    3.560000
  Q     14.750000    7.270000    4.000000
  Q     15.320000    7.770000    3.680000
  Q     15.010000   18.880000    9.810000
  Q     15.780000   20.160000    9.190000
  Q     15.120000   19.710000    9.540000
  Q      2.810000   10.970000   15.850000
  Q      2.420000   12.380000   16.270000
  Q      2.780000   11.640000   16.380000
  Q     17.050000    7.720000   18.600000
  Q     17.570000    7.360000   17.150000
  Q     17.450000    7.880000   17.820000
  Q      4.340000   12.750000    9.900000
  Q      4.490000   13.440000    8.510000
  Q      4.690000   13.260000    9.330000
  Q      7.060000    8.680000    3.160000
  Q      5.730000    8.870000    2.270000
  Q      6.240000    8.920000    3.020000
  Q     12.050000    5.800000    4.480000
  Q     13.010000    5.210000    3.320000
  Q     12.730000    5.730000    3.960000
  Q     15.070000   13.120000    4.880000
  Q     15.930000   13.780000    5.970000
  Q     15.190000   13.540000    5.600000
  Q     11.080000   13.820000    2.460000
  Q     10.540000   12.440000    3.040000
  Q     10.800000   12.990000    2.440000
  Q      9.270000    6.600000    1.030000
  Q      7.880000    7.270000    0.800000
  Q      8.460000    6.770000    1.200000
  Q      4.110000   12.320000   13.870000
  Q      2.730000   13.040000   14.330000
  Q      3.510000   12.960000   13.980000
  Q     11.790000   19.430000    3.480000
  Q     10.270000   19.270000    2.880000
  Q     10.970000   19.080000    3.370000
  Q     16.210000   19.320000   14.670000
  Q     15.240000   18.090000   14.750000
  Q     15.590000   18.820000   15.050000

----------------------------
CARTESIAN COORDINATES (A.U.)
----------------------------
  NO LB      ZA    FRAG     MASS         X           Y           Z
   0 C     6.0000    0    12.011   20.560220   20.616912   17.347686
   1 H     1.0000    0     1.008   20.635809   18.972850   15.968186
   2 H     1.0000    0     1.008   22.468844   21.183830   18.046885
   3 C     6.0000    0    12.011   18.632700   20.163378   19.426385
   4 H     1.0000    0     1.008   17.801220   21.845234   19.993302
   5 H     1.0000    0     1.008   17.253200   18.916159   18.746083
   6 C     6.0000    0    12.011   19.634255   18.972850   21.845234
   7 H     1.0000    0     1.008   19.785433   16.931946   21.410597
   8 H     1.0000    0     1.008   18.368138   19.237412   23.375912
   9 C     6.0000    0    12.011   22.204282   19.974405   22.884583
  10 H     1.0000    0     1.008   21.750748   21.561775   24.150700
  11 H     1.0000    0     1.008   23.168042   20.994857   21.259419
  12 O     8.0000    0    15.999   23.753858   18.027987   23.905036
  13 H     1.0000    0     1.008   23.016864   17.347686   25.322330
  14 O     8.0000    0    15.999   19.653152   22.601125   15.684727
  15 H     1.0000    0     1.008   19.369693   24.075111   16.629590
  16 O     8.0000    0    15.999   20.106686   26.569549   22.525536
  17 H     1.0000    0     1.008   19.653152   27.060878   20.862577
  18 H     1.0000    0     1.008   21.901926   26.909700   22.695611
  19 O     8.0000    0    15.999   17.479967   25.851454   27.060878
  20 H     1.0000    0     1.008   17.687837   24.037316   27.230954
  21 H     1.0000    0     1.008   18.235857   26.078221   25.397919
  22 O     8.0000    0    15.999   11.678508   19.766535   21.391700
  23 H     1.0000    0     1.008   12.037555   19.672049   23.149145
  24 H     1.0000    0     1.008   12.132042   18.122474   20.730296
  25 O     8.0000    0    15.999   17.517761   13.322569   17.631145
  26 H     1.0000    0     1.008   19.199618   13.398158   18.405933
  27 H     1.0000    0     1.008   16.497309   13.587131   19.048439
  28 O     8.0000    0    15.999   20.295659   14.928836   29.120680
  29 H     1.0000    0     1.008   21.221624   15.268987   30.689152
  30 H     1.0000    0     1.008   21.505083   13.908384   28.326995
  31 O     8.0000    0    15.999   26.361680   15.363473   20.257864
  32 H     1.0000    0     1.008   27.590002   14.607583   21.467289
  33 H     1.0000    0     1.008   25.473508   16.648487   21.146035
  34 O     8.0000    0    15.999   23.772755   12.113145   26.758522
  35 H     1.0000    0     1.008   25.605789   11.848583   26.645138
  36 H     1.0000    0     1.008   23.432604   11.206076   28.364789
  37 O     8.0000    0    15.999   16.005980   10.525775   22.412152
  38 H     1.0000    0     1.008   15.363473    9.637603   20.919268
  39 H     1.0000    0     1.008   17.763426   10.336802   22.355460
  40 O     8.0000    0    15.999   21.278316   16.459515   34.166249
  41 H     1.0000    0     1.008   20.201172   17.876809   34.657577
  42 H     1.0000    0     1.008   22.922378   16.894152   34.865447
  43 O     8.0000    0    15.999   17.102022    9.750987   14.210741
  44 H     1.0000    0     1.008   17.328789   10.979309   15.514652
  45 H     1.0000    0     1.008   15.892597   10.506877   13.020213
  46 O     8.0000    0    15.999   15.363473   22.072001   12.264323
  47 H     1.0000    0     1.008   16.913049   22.317666   13.209186
  48 H     1.0000    0     1.008   16.024878   21.807440   10.563569
  49 O     8.0000    0    15.999   13.171391   14.815453   19.369693
  50 H     1.0000    0     1.008   13.473747   15.136706   17.555556
  51 H     1.0000    0     1.008   11.527329   13.965076   19.388590
  52 O     8.0000    0    15.999   25.360125   26.059323   23.489296
  53 H     1.0000    0     1.008   25.624686   27.778974   23.961727
  54 H     1.0000    0     1.008   26.871906   25.171152   23.923933
  55 O     8.0000    0    15.999   12.434398   26.418371   28.232508
  56 H     1.0000    0     1.008   11.697405   27.419926   26.947495
  57 H     1.0000    0     1.008   14.116254   25.775864   27.760077
  58 O     8.0000    0    15.999   28.931707   19.483076   24.604234
  59 H     1.0000    0     1.008   29.914365   19.161823   23.092453
  60 H     1.0000    0     1.008   27.136467   19.105131   24.453056
  61 O     8.0000    0    15.999   20.673604   14.739864   13.114699
  62 H     1.0000    0     1.008   20.598015   14.891042   15.023323
  63 H     1.0000    0     1.008   21.391700   16.289439   12.642268
  64 O     8.0000    0    15.999   18.368138   27.495515   17.668939
  65 H     1.0000    0     1.008   18.557111   27.854563   15.835905
  66 H     1.0000    0     1.008   16.667385   26.966392   18.027987
  67 O     8.0000    0    15.999    6.935295   22.223179   20.919268
  68 H     1.0000    0     1.008    6.954192   23.602679   22.128693
  69 H     1.0000    0     1.008    8.598254   21.486186   21.202727
  70 O     8.0000    0    15.999   22.506638   12.547782   18.009090
  71 H     1.0000    0     1.008   23.999522   13.454850   18.727186
  72 H     1.0000    0     1.008   23.205837   12.075350   16.402823
  73 O     8.0000    0    15.999   21.127138    9.656501   22.525536
  74 H     1.0000    0     1.008   21.788542   10.355699   21.032652
  75 H     1.0000    0     1.008   22.072001   10.469083   23.829447
  76 O     8.0000    0    15.999   26.456166   25.473508   18.160268
  77 H     1.0000    0     1.008   26.626241   26.985289   17.158713
  78 H     1.0000    0     1.008   25.586892   26.153810   19.634255
  79 O     8.0000    0    15.999   22.733405   19.539768   11.546227
  80 H     1.0000    0     1.008   24.471953   19.388590   11.432843
  81 H     1.0000    0     1.008   22.601125   21.221624   12.207631
  82 O     8.0000    0    15.999   19.067337   28.383687   12.547782
  83 H     1.0000    0     1.008   19.709844   29.933262   11.943069
  84 H     1.0000    0     1.008   20.390145   27.287645   12.321014
  85 O     8.0000    0    15.999   23.035762   24.831001   12.358809
  86 H     1.0000    0     1.008   24.849899   25.001077   12.056453
  87 H     1.0000    0     1.008   22.771200   24.660926   14.154049
  88 O     8.0000    0    15.999   14.172946   24.849899   18.802775
  89 H     1.0000    0     1.008   14.040665   23.564885   20.087789
  90 H     1.0000    0     1.008   12.585576   24.396364   17.952398
  91 O     8.0000    0    15.999   17.272097   29.989954   30.632461
  92 H     1.0000    0     1.008   15.798110   29.196269   31.577324
  93 H     1.0000    0     1.008   17.347686   28.931707   29.177372
  94 O     8.0000    0    15.999    9.732090   19.898816   26.342782
  95 H     1.0000    0     1.008    8.919507   18.538213   25.605789
  96 H     1.0000    0     1.008   10.525775   18.972850   27.608899
  97 O     8.0000    0    15.999   15.363473   16.176056   27.571104
  98 H     1.0000    0     1.008   14.248535   14.985528   26.777419
  99 H     1.0000    0     1.008   16.969741   15.382371   27.930152
 100 O     8.0000    0    15.999   22.147590   26.361680   29.328550
 101 H     1.0000    0     1.008   20.390145   26.134912   28.818324
 102 H     1.0000    0     1.008   22.922378   28.024639   28.761632
 103 O     8.0000    0    15.999   22.752303    9.599809   31.312762
 104 H     1.0000    0     1.008   21.335008   10.469083   31.822988
 105 H     1.0000    0     1.008   24.207392   10.431288   32.106447
 106 O     8.0000    0    15.999   24.075111   31.104892   23.886138
 107 H     1.0000    0     1.008   22.620022   31.747399   22.960173
 108 H     1.0000    0     1.008   25.454611   31.785194   22.960173
 109 O     8.0000    0    15.999   17.952398   20.692501   28.534865
 110 H     1.0000    0     1.008   17.102022   19.313001   27.911255
 111 H     1.0000    0     1.008   19.294104   20.031097   29.517522
 112 Q     0.6645    0     0.000   28.440378   20.975960   14.059562
 113 Q     0.6645    0     0.000   29.026193   19.426385   11.772994
 114 Q    -1.3290    0     0.000   28.175817   19.766535   13.152494
 115 Q     0.6645    0     0.000    5.725870   31.463940   23.357015
 116 Q     0.6645    0     0.000    6.821911   30.594666   20.730296
 117 Q    -1.3290    0     0.000    5.688076   31.085995   21.807440
 118 Q     0.6645    0     0.000   25.813659   25.416817   30.519077
 119 Q     0.6645    0     0.000   27.230954   23.451501   31.936372
 120 Q    -1.3290    0     0.000   26.890803   24.906590   31.634015
 121 Q     0.6645    0     0.000   34.827653   15.798110   23.867241
 122 Q     0.6645    0     0.000   35.772516   12.812343   23.489296
 123 Q    -1.3290    0     0.000   35.130009   14.399713   23.092453
 124 Q     0.6645    0     0.000   15.873700   28.837221   10.280110
 125 Q     0.6645    0     0.000   13.719412   27.911255    8.749432
 126 Q    -1.3290    0     0.000   14.588686   29.045091    9.410836
 127 Q     0.6645    0     0.000   29.668700   25.889248    0.207870
 128 Q     0.6645    0     0.000   28.799426   25.624686    2.815692
 129 Q    -1.3290    0     0.000   28.912810   26.323885    1.455089
 130 Q     0.6645    0     0.000    8.295898    7.351035   11.640713
 131 Q     0.6645    0     0.000    9.864370    8.749432    9.599809
 132 Q    -1.3290    0     0.000    9.429733    7.521110   10.506877
 133 Q     0.6645    0     0.000   16.100467   13.757206   37.775625
 134 Q     0.6645    0     0.000   16.894152   16.176056   39.381893
 135 Q    -1.3290    0     0.000   15.873700   15.098912   38.682694
 136 Q     0.6645    0     0.000    7.029781   28.856118    8.201411
 137 Q     0.6645    0     0.000    6.500658   31.709605    8.088028
 138 Q    -1.3290    0     0.000    7.388829   30.424591    8.163617
 139 Q     0.6645    0     0.000   14.343021    9.505322    2.834589
 140 Q     0.6645    0     0.000   12.755651    9.448631    5.196747
 141 Q    -1.3290    0     0.000   13.700514    8.787227    4.081808
 142 Q     0.6645    0     0.000   15.665830   23.130248   -0.113384
 143 Q     0.6645    0     0.000   17.045330   24.339673    2.116493
 144 Q    -1.3290    0     0.000   15.779213   23.791652    1.322808
 145 Q     0.6645    0     0.000    7.823466   31.331659   28.591556
 146 Q     0.6645    0     0.000    7.351035   33.826098   29.971056
 147 Q    -1.3290    0     0.000    6.954192   32.408803   29.347447
 148 Q     0.6645    0     0.000    8.390384    8.220309   15.949289
 149 Q     0.6645    0     0.000    9.883268    6.160507   14.513097
 150 Q    -1.3290    0     0.000    9.165172    6.878603   15.817008
 151 Q     0.6645    0     0.000   35.526851    6.481761   28.326995
 152 Q     0.6645    0     0.000   38.248057    6.689631   29.252961
 153 Q    -1.3290    0     0.000   36.906351    7.313240   28.780529
 154 Q     0.6645    0     0.000    3.741658   15.817008   15.382371
 155 Q     0.6645    0     0.000    4.006219   16.024878   12.661165
 156 Q    -1.3290    0     0.000    4.459754   15.495754   14.078460
 157 Q     0.6645    0     0.000   29.139577   21.958618    6.670733
 158 Q     0.6645    0     0.000   26.966392   22.771200    5.177850
 159 Q    -1.3290    0     0.000   28.289200   23.035762    5.895946
 160 Q     0.6645    0     0.000    8.881713   10.544672   21.221624
 161 Q     0.6645    0     0.000    7.029781   12.207631   19.634255
 162 Q    -1.3290    0     0.000    8.428179   11.791891   20.314556
 163 Q     0.6645    0     0.000    6.254994   23.432604    4.781007
 164 Q     0.6645    0     0.000    6.557350   21.127138    6.708528
 165 Q    -1.3290    0     0.000    5.839254   22.015309    5.574692
 166 Q     0.6645    0     0.000   28.364789   10.733644   34.695372
 167 Q     0.6645    0     0.000   27.363234   13.435953   35.016625
 168 Q    -1.3290    0     0.000   27.665591   12.113145   34.222940
 169 Q     0.6645    0     0.000    7.369932   17.763426   14.947734
 170 Q     0.6645    0     0.000    8.654946   18.916159   12.680062
 171 Q    -1.3290    0     0.000    8.465973   18.689391   14.210741
 172 Q     0.6645    0     0.000   23.564885    3.987322   19.955508
 173 Q     0.6645    0     0.000   22.922378    6.122713   21.977515
 174 Q    -1.3290    0     0.000   23.413707    4.648726   21.486186
 175 Q     0.6645    0     0.000   34.506399   23.130248   11.735199
 176 Q     0.6645    0     0.000   36.018180   20.975960   10.336802
 177 Q    -1.3290    0     0.000   34.865447   21.618467   11.262768
 178 Q     0.6645    0     0.000   16.610693   30.556872   18.368138
 179 Q     0.6645    0     0.000   15.080015   32.975721   17.631145
 180 Q    -1.3290    0     0.000   15.590241   31.822988   18.632700
 181 Q     0.6645    0     0.000   34.941036   22.487741   23.942830
 182 Q     0.6645    0     0.000   35.999283   25.076666   23.149145
 183 Q    -1.3290    0     0.000   35.224495   24.075111   24.094008
 184 Q     0.6645    0     0.000   28.969502   23.659371   17.839015
 185 Q     0.6645    0     0.000   30.594666   21.542878   18.746083
 186 Q    -1.3290    0     0.000   30.235618   22.752303   17.820117
 187 Q     0.6645    0     0.000   34.411913   27.041981   14.116254
 188 Q     0.6645    0     0.000   32.408803   24.831001   14.853247
 189 Q    -1.3290    0     0.000   33.221385   25.927043   13.927282
 190 Q     0.6645    0     0.000   22.260974    6.878603   29.404139
 191 Q     0.6645    0     0.000   20.182275    6.765220   27.230954
 192 Q    -1.3290    0     0.000   21.599570    6.368377   28.024639
 193 Q     0.6645    0     0.000   22.109796   37.000838   28.081330
 194 Q     0.6645    0     0.000   20.768090   36.679584   25.511303
 195 Q    -1.3290    0     0.000   20.938166   36.528406   27.098673
 196 Q     0.6645    0     0.000   16.913049    9.165172   28.931707
 197 Q     0.6645    0     0.000   16.308337    9.259658   25.964837
 198 Q    -1.3290    0     0.000   16.837460    8.636048   27.363234
 199 Q     0.6645    0     0.000   29.328550    5.631384   15.533549
 200 Q     0.6645    0     0.000   31.274968    7.048678   13.832795
 201 Q    -1.3290    0     0.000   30.670255    5.820356   14.645378
 202 Q     0.6645    0     0.000   18.160268   28.345892   39.060639
 203 Q     0.6645    0     0.000   17.574453   31.048200   38.493721
 204 Q    -1.3290    0     0.000   17.272097   29.536419   38.418132
 205 Q     0.6645    0     0.000    6.084918   10.695850   28.024639
 206 Q     0.6645    0     0.000    8.768329   11.413946   29.271858
 207 Q    -1.3290    0     0.000    7.691185   10.998206   28.062433
 208 Q     0.6645    0     0.000   29.706495   20.560220   27.590002
 209 Q     0.6645    0     0.000   30.556872   20.673604   30.405693
 210 Q    -1.3290    0     0.000   30.632461   21.108241   28.912810
 211 Q     0.6645    0     0.000   25.473508   18.783878    2.683411
 212 Q     0.6645    0     0.000   26.626241   16.686282    4.384165
 213 Q    -1.3290    0     0.000   25.945940   17.309891    3.023562
 214 Q     0.6645    0     0.000   15.061117   28.969502    1.152733
 215 Q     0.6645    0     0.000   16.931946   29.706495    3.136945
 216 Q    -1.3290    0     0.000   15.533549   29.800981    2.399952
 217 Q     0.6645    0     0.000   28.629351    1.833034   17.442172
 218 Q     0.6645    0     0.000   25.945940    2.324363   16.440617
[...]
 332   Q   :    0.023744674    0.223980268    0.200602351
 333   Q   :   -0.195281019   -0.024113074   -0.195745650
 334   Q   :    0.173880705   -0.199690571   -0.009417309
 335   Q   :    0.148415244   -0.049416977   -0.226542160
 336   Q   :   -0.148480238   -0.196475913    0.158166430
 337   Q   :   -0.009569713    0.239124446    0.057688327
 338   Q   :    0.181978044   -0.033608310   -0.224903352
 339   Q   :   -0.037384037   -0.200092173    0.180434045
 340   Q   :   -0.154876158    0.231043446    0.039883053
 341   Q   :   -0.079636341    0.177285200    0.197464801
 342   Q   :    0.282266302    0.017198215   -0.127009380
 343   Q   :   -0.207077541   -0.192444999   -0.065660867
 344   Q   :    0.222741807   -0.182041660   -0.036349011
 345   Q   :   -0.010502113    0.218864664    0.181367541
 346   Q   :   -0.214221639   -0.038581117   -0.140095096
 347   Q   :   -0.275228499   -0.064327039   -0.071893177
 348   Q   :    0.158578270    0.174294915   -0.122308825
 349   Q   :    0.122808406   -0.114195373    0.190523514
 350   Q   :    0.033649971    0.250324140   -0.073458048
 351   Q   :    0.100798611   -0.152736261    0.205616329
 352   Q   :   -0.133388179   -0.094030755   -0.136074337
 353   Q   :    0.141529078   -0.093917925    0.228674560
 354   Q   :   -0.102467554   -0.156999768   -0.161420386
 355   Q   :   -0.050414037    0.253739265   -0.072562061
 356   Q   :   -0.279305005   -0.088706303   -0.145959234
 357   Q   :    0.075857094    0.299295754   -0.061973397
 358   Q   :    0.195506211   -0.205358184    0.202382974
 359   Q   :    0.272624097   -0.015970531   -0.084034947
 360   Q   :   -0.184230884   -0.107204837   -0.161830460
 361   Q   :   -0.081228331    0.113563337    0.233596181
 362   Q   :   -0.045669724    0.265161266    0.004171052
 363   Q   :   -0.213295508   -0.209489722    0.010598833
 364   Q   :    0.267416204   -0.064101751   -0.013561196
 365   Q   :   -0.165553775    0.224519974   -0.006766554
 366   Q   :    0.220939807   -0.041657791   -0.184989127
 367   Q   :   -0.048535486   -0.185007835    0.182016668
 368   Q   :    0.219469068   -0.014995731   -0.098277628
 369   Q   :   -0.227631674   -0.176157972    0.005893483
 370   Q   :   -0.001244096    0.190587505    0.094706241
 371   Q   :   -0.132437633    0.149081782   -0.229806121
 372   Q   :    0.020239050    0.088719885    0.250560687
 373   Q   :    0.114199139   -0.231466690   -0.029915102
 374   Q   :    0.038599418    0.195753912   -0.109539166
 375   Q   :    0.066982480   -0.277867520   -0.031120772
 376   Q   :   -0.102178176    0.082881373    0.145960066
 377   Q   :   -0.002318222    0.227419140   -0.123317195
 378   Q   :    0.223680540   -0.156826895    0.076835664
 379   Q   :   -0.225977816   -0.066444568    0.052043965
 380   Q   :   -0.007585646   -0.278859838    0.030598491
 381   Q   :   -0.108748147    0.131881973   -0.222811854
 382   Q   :    0.118546750    0.142430574    0.189073230
 383   Q   :   -0.007700247   -0.307041355    0.056786605
 384   Q   :    0.069372295    0.187170137    0.214174015
 385   Q   :   -0.067762900    0.117381016   -0.266706494
 386   Q   :   -0.166447840    0.118172860    0.215429875
 387   Q   :    0.280561438   -0.100152849    0.027715067
 388   Q   :   -0.111470989   -0.024523312   -0.246699038
 389   Q   :   -0.101791064    0.017371920    0.272500878
 390   Q   :   -0.024549116   -0.229859816   -0.137602576
 391   Q   :    0.122808685    0.212827142   -0.128754878
 392   Q   :    0.205801195    0.037164534    0.241065564
 393   Q   :   -0.291601375    0.013748456    0.026170625
 394   Q   :    0.080757657   -0.053962589   -0.274947289
 395   Q   :   -0.196257166   -0.145227329    0.138868768
 396   Q   :    0.244163114    0.126368413    0.087791818
 397   Q   :   -0.045076485    0.018803241   -0.228621949
 398   Q   :   -0.173434431    0.130121812   -0.178330938
 399   Q   :    0.051944307    0.060120750    0.220699309
 400   Q   :    0.115304647   -0.185114722   -0.050667204
 401   Q   :    0.204375410   -0.168958092    0.073295023
 402   Q   :   -0.270514437   -0.048699463    0.001848885
 403   Q   :    0.054375448    0.212898798   -0.077349439
 404   Q   :   -0.000014508   -0.253629946    0.098090272
 405   Q   :    0.142755848    0.089541139   -0.203388928
 406   Q   :   -0.148895347    0.161369458    0.105486722
 407   Q   :   -0.115516319    0.233532805   -0.105701367
 408   Q   :   -0.155573974   -0.184550731    0.154942591
 409   Q   :    0.276998392   -0.055593819   -0.051412933
 410   Q   :   -0.160768473   -0.069209713   -0.215133107
 411   Q   :   -0.029289859    0.200026490    0.195057369
 412   Q   :    0.181876531   -0.129012303    0.029111099
 413   Q   :   -0.061580098    0.259394695    0.102208862
 414   Q   :   -0.203863229   -0.159126976   -0.140328736
 415   Q   :    0.277652727   -0.088092863    0.029687661
 416   Q   :   -0.084969706   -0.192541472   -0.186697775
 417   Q   :    0.160518409   -0.052229018    0.222116350
 418   Q   :   -0.076826029    0.247489540   -0.035323865
 419   Q   :   -0.027722664   -0.250313805    0.096976654
 420   Q   :    0.160576960    0.207347303    0.089389001
 421   Q   :   -0.117760718    0.051607521   -0.178107329
 422   Q   :   -0.230587303   -0.166106023   -0.033442375
 423   Q   :    0.066602759    0.214995841   -0.167731033
 424   Q   :    0.158212742   -0.047853234    0.211119226
 425   Q   :    0.083497731    0.274712074   -0.105797138
 426   Q   :    0.097204420   -0.127657777    0.286425684
 427   Q   :   -0.182100098   -0.142772852   -0.175348847
 428   Q   :   -0.031504313    0.229024036    0.150217970
 429   Q   :   -0.154664085   -0.221920944   -0.065932960
 430   Q   :    0.187632884   -0.010998447   -0.087470673
 431   Q   :    0.015272795   -0.270513647   -0.059018242
 432   Q   :    0.145062795    0.202940528   -0.132535699
 433   Q   :   -0.162495748    0.072698156    0.194275770
 434   Q   :   -0.264292789    0.039299303   -0.093813651
 435   Q   :    0.056610514   -0.097741498    0.235717863
 436   Q   :    0.200590556    0.068329807   -0.148952193
 437   Q   :   -0.256785079    0.128353893   -0.007128241
 438   Q   :    0.127902634   -0.112193081   -0.239365808
 439   Q   :    0.140756906   -0.014880748    0.239428163
 440   Q   :    0.091364619    0.200810951   -0.121394615
 441   Q   :   -0.238139930   -0.058282715    0.068088307
 442   Q   :    0.138701075   -0.135125078    0.056180971
 443   Q   :   -0.177042534    0.044375802   -0.148999787
 444   Q   :    0.228723018   -0.095416506   -0.052738034
 445   Q   :   -0.051165002    0.055451239    0.198376180
 446   Q   :   -0.190549901    0.054200647    0.189232603
 447   Q   :    0.063768749   -0.211173942   -0.118206216
 448   Q   :    0.119872182    0.172228778   -0.070126411
 449   Q   :   -0.040432121   -0.239416953    0.170622240
 450   Q   :   -0.156609407    0.229654366    0.043834742
 451   Q   :    0.195070391    0.001053063   -0.208928131
 452   Q   :   -0.106327015    0.226815930    0.168845490
 453   Q   :    0.147157149   -0.231476371    0.072962992
 454   Q   :   -0.042155380    0.001266765   -0.233897016
 455   Q   :    0.021426266    0.018147879   -0.260519123
 456   Q   :    0.180893877   -0.001425052    0.199473768
 457   Q   :   -0.199433103   -0.017072897    0.059956941
 458   Q   :   -0.040202248    0.069102443   -0.261254586
 459   Q   :    0.213730081   -0.205570283    0.050214147
 460   Q   :   -0.170539639    0.135872559    0.218813638
 461   Q   :   -0.293774456   -0.017231250    0.046691806
 462   Q   :    0.201818499   -0.159531900    0.124889865
 463   Q   :    0.091494312    0.182777966   -0.167163448
 464   Q   :    0.095621694    0.130421685   -0.248326487
 465   Q   :    0.038922582   -0.268865409    0.062418030
 466   Q   :   -0.127808652    0.132488166    0.179779605
 467   Q   :    0.199471369   -0.094885286   -0.207319156
 468   Q   :   -0.162167308    0.213448373   -0.027428068
 469   Q   :   -0.029420685   -0.126580611    0.233026440
 470   Q   :   -0.173226641    0.039172512    0.247417318
 471   Q   :    0.019096855   -0.240724673   -0.162484174
 472   Q   :    0.162249300    0.202200868   -0.072616977
 473   Q   :    0.080545481   -0.164373240   -0.202285334
 474   Q   :    0.081817931    0.050573228    0.243433472
 475   Q   :   -0.146961712    0.109529277   -0.046447560
 476   Q   :    0.197413870   -0.151552380   -0.116317740
 477   Q   :   -0.266711679   -0.116191898    0.095509928
 478   Q   :    0.065428802    0.266474876    0.009261081
 479   Q   :   -0.112718945   -0.039206475    0.247876798
 480   Q   :    0.157433227   -0.143496331   -0.149523850
 481   Q   :   -0.049165449    0.184969353   -0.087114347
 482   Q   :    0.077190886    0.075208115   -0.265111960
 483   Q   :   -0.184361515   -0.199525816    0.082628934
 484   Q   :    0.097502547    0.118026233    0.182145674
 485   Q   :    0.063025909    0.049773352   -0.252499552
 486   Q   :    0.179080717   -0.134862768    0.197688909
 487   Q   :   -0.248091332    0.076186793    0.055367767
 488   Q   :   -0.149920019    0.164516443   -0.136272562
 489   Q   :    0.126374066   -0.241127325   -0.098653328
 490   Q   :    0.043051887    0.075536105    0.241645057
 491   Q   :   -0.061770365    0.146175471   -0.228252754
 492   Q   :    0.306433025   -0.014714509    0.086569540
 493   Q   :   -0.229205736   -0.133098463    0.140917467
 494   Q   :   -0.243208265    0.017188449    0.117117288
 495   Q   :    0.232483167    0.074951792    0.128594599
 496   Q   :    0.016571350   -0.088996342   -0.245495087
 497   Q   :   -0.045933882   -0.124549044    0.271841512
 498   Q   :    0.014266491   -0.185526197   -0.236876796
 499   Q   :    0.025496005    0.313015705   -0.026154319
 500   Q   :    0.110333406    0.262754463    0.003703235
 501   Q   :    0.198136204   -0.233336379    0.011727363
 502   Q   :   -0.314753027   -0.027758203   -0.010812409
 503   Q   :    0.063033414    0.209474136   -0.204792941
 504   Q   :    0.194570198   -0.052168806    0.216535103
 505   Q   :   -0.247663897   -0.159235860   -0.012525615
 506   Q   :   -0.025374550    0.278056723   -0.015504285
 507   Q   :    0.212161259   -0.168280416   -0.104419010
 508   Q   :   -0.178161759   -0.111761226    0.133833136
 509   Q   :   -0.008646784   -0.244622770   -0.126436072
 510   Q   :    0.224771644    0.096302253    0.148154412
 511   Q   :   -0.209550758    0.140609409   -0.034878088
 512   Q   :   -0.105643604    0.162085233    0.201624968
 513   Q   :    0.152912240    0.087171077   -0.242793557
 514   Q   :   -0.044738915   -0.243158823    0.045957753
 515   Q   :    0.088280662    0.134474917   -0.163318409
 516   Q   :   -0.046354004   -0.222537311   -0.001699164
 517   Q   :   -0.044331909    0.091465924    0.171535999
 518   Q   :   -0.036580182    0.061848202   -0.280618538
 519   Q   :   -0.203404414    0.040458740    0.209870607
 520   Q   :    0.238289906   -0.120581256    0.070924961
 521   Q   :   -0.155842259   -0.191646354    0.006988193
 522   Q   :    0.103615256    0.094311958   -0.231774944
 523   Q   :    0.048341570    0.107457333    0.221279526
 524   Q   :    0.096177505   -0.264172668   -0.062036211
 525   Q   :    0.163517358    0.222126120    0.080002391
 526   Q   :   -0.267441433    0.029822483   -0.017734692
 527   Q   :   -0.276281523    0.022954365    0.017912605
 528   Q   :    0.159298705    0.250154621   -0.108864356
 529   Q   :    0.126664487   -0.275001284    0.092916834
 530   Q   :    0.260359629    0.013012054   -0.060575455
 531   Q   :   -0.126143171    0.074179005    0.234784512
 532   Q   :   -0.137484300   -0.088660621   -0.159047462
 533   Q   :    0.282204711   -0.049647774    0.028905258
 534   Q   :   -0.105707810    0.259938638   -0.032708099
 535   Q   :   -0.177338491   -0.198287434   -0.004462124
 536   Q   :    0.227586145    0.074497504   -0.131357715
 537   Q   :   -0.221102618   -0.081316968   -0.084560287
 538   Q   :   -0.002139197    0.011488647    0.215552873
 539   Q   :   -0.213715332    0.158383874    0.096218913
 540   Q   :    0.259274863    0.055185718    0.063016364
 541   Q   :   -0.052398009   -0.222243034   -0.162715842
 542   Q   :    0.309000379   -0.095171205    0.016893753
 543   Q   :   -0.127729374    0.005557961   -0.259741797
 544   Q   :   -0.175857206    0.091490909    0.244369594
 545   Q   :    0.038471244   -0.180168583   -0.142093534
 546   Q   :    0.031709313    0.007994011    0.283206011
 547   Q   :   -0.072882311    0.165620189   -0.141522769
 548   Q   :    0.196352556    0.085080241   -0.186657565
 549   Q   :   -0.121407122   -0.241675388   -0.015690020
 550   Q   :   -0.082975703    0.160219450    0.212149371
 551   Q   :   -0.257688866   -0.065271036    0.038827759
 552   Q   :    0.135115741    0.205852989   -0.072207007
 553   Q   :    0.124711685   -0.135995106    0.034527800
 554   Q   :   -0.023271629   -0.289874998    0.006165939
 555   Q   :    0.232136797    0.110931059   -0.119982293
 556   Q   :   -0.204749975    0.182881200    0.110173929
 557   Q   :   -0.104800804    0.043088395    0.249202386
 558   Q   :   -0.045139247    0.194171247   -0.239554833
 559   Q   :    0.152405298   -0.225683719   -0.002565503
 560   Q   :    0.269543861    0.032843450    0.116435560
 561   Q   :   -0.154459045    0.182743457   -0.065937276
 562   Q   :   -0.111155898   -0.226312657   -0.044058120
 563   Q   :   -0.086130166   -0.270092964   -0.096646371
 564   Q   :   -0.027636815    0.229478551   -0.092100215
 565   Q   :    0.127013601    0.028113001    0.196137859
 566   Q   :   -0.008460110   -0.149190580    0.219922425
 567   Q   :   -0.209023351    0.182848378   -0.089503685
 568   Q   :    0.223324665   -0.038536017   -0.126715938
 569   Q   :   -0.104086957    0.049968414    0.287735464
 570   Q   :    0.229684596    0.134073401   -0.114285488
 571   Q   :   -0.124979818   -0.185231574   -0.170185281
 572   Q   :   -0.134983716    0.099347863    0.234578183
 573   Q   :   -0.118896018   -0.070205652   -0.243964261
 574   Q   :    0.249971491   -0.026167080    0.013201467
 575   Q   :   -0.096205801    0.074319540    0.239962885
 576   Q   :   -0.120312101   -0.157014551   -0.184289299
 577   Q   :    0.203674952    0.089994466   -0.050856830
 578   Q   :    0.181632765    0.020390210    0.217032041
 579   Q   :    0.020773308    0.096925614   -0.228434988
 580   Q   :   -0.195177646   -0.124183453    0.016292697
 581   Q   :    0.096311841   -0.248905006   -0.106298426
 582   Q   :   -0.257521632    0.046151268    0.092090836
 583   Q   :    0.161955507    0.204079746    0.019575154
 584   Q   :    0.279839957   -0.058694562   -0.035333803
 585   Q   :   -0.197561113   -0.191171091    0.120332043
 586   Q   :   -0.091530233    0.244119280   -0.082792958
 587   Q   :   -0.017105011   -0.245228795    0.065398637
 588   Q   :    0.219578942    0.132057915   -0.114796281
 589   Q   :   -0.189576039    0.115135857    0.050956082
 590   Q   :    0.001981306   -0.204994305   -0.186136072
 591   Q   :   -0.140614796    0.270837808   -0.066204239
 592   Q   :    0.131182381   -0.061388537    0.251776528
 593   Q   :   -0.108476855   -0.050376623    0.211794090
 594   Q   :    0.043574288   -0.169795936   -0.203919373
 595   Q   :    0.053064808    0.227168522   -0.015566294
 596   Q   :   -0.113544798   -0.162921397    0.178243469
 597   Q   :   -0.062200141    0.051685296   -0.259350942
 598   Q   :    0.175416707    0.115824552    0.074663578
 599   Q   :    0.241070845   -0.078474627    0.027954711
 600   Q   :   -0.130818588   -0.023887959   -0.211243580
 601   Q   :   -0.111947177    0.095107802    0.173507238
 602   Q   :   -0.203384637    0.021359179    0.155521994
 603   Q   :    0.082694833   -0.163297898   -0.200727152
 604   Q   :    0.124413318    0.143488378    0.035538270
 605   Q   :   -0.023926789   -0.146583685   -0.238363680
 606   Q   :    0.242639336    0.068888300    0.102037072
 607   Q   :   -0.215323434    0.082021828    0.137250521
 608   Q   :    0.089818085    0.236836405    0.010346006
 609   Q   :   -0.078736947   -0.164884709    0.191404846
 610   Q   :   -0.009760802   -0.067936541   -0.200093076
 611   Q   :    0.265931624   -0.049594597   -0.073997090
 612   Q   :   -0.182776992    0.166502021   -0.140319841
 613   Q   :   -0.086624574   -0.112061937    0.213301204
 614   Q   :    0.161394287   -0.184452270   -0.037615369
 615   Q   :   -0.264425566    0.014793642    0.124411807
 616   Q   :    0.092363519    0.166654298   -0.076314945
 617   Q   :    0.232139418    0.105701878    0.026702283
 618   Q   :   -0.204356996    0.066168735   -0.159160238
 619   Q   :   -0.027355086   -0.161635291    0.116780095
 620   Q   :    0.193263282    0.145461630   -0.133839942
 621   Q   :   -0.108799798   -0.222488620   -0.105983341
 622   Q   :   -0.086930153    0.086926326    0.249004796

Difference to translation invariance:
           :    0.0003511120    0.0000305074    0.0003416466

Difference to rotation invariance:
           :    0.0058703765    0.0032788998   -0.0067918263

Norm of the cartesian gradient     ...    6.2016645983
RMS gradient                       ...    0.1435662826
MAX gradient                       ...    0.3149398089

-------
TIMINGS
-------

Total SCF gradient time            ...      231.547 sec

One electron gradient       ....      29.045 sec  ( 12.5%)
RI-J Coulomb gradient       ....      12.545 sec  (  5.4%)
COSX gradient               ....     144.613 sec  ( 62.5%)
XC gradient                 ....      18.592 sec  (  8.0%)

Maximum memory used throughout the entire SCFGRAD-calculation: 888.9 MB

                            ***************************************
                            *     ORCA property calculations      *
                            ***************************************

                                    ---------------------
                                    Active property flags
                                    ---------------------
   (+) Dipole Moment


------------------------------------------------------------------------------
                       ORCA ELECTRIC PROPERTIES CALCULATION
------------------------------------------------------------------------------

Dipole Moment Calculation                       ... on
Quadrupole Moment Calculation                   ... off
Polarizability Calculation                      ... off
GBWName                                         ... final074.orca.gbw
Electron density                                ... final074.orca.scfp
The origin for moment calculation is the CENTER OF MASS  = (19.354198, 19.935614 21.829054)

-------------
DIPOLE MOMENT
-------------
                                X             Y             Z
Electronic contribution:      1.17537      -0.02207      -0.22420
Nuclear contribution   :     17.71782     -10.17708      -8.65672
                        -----------------------------------------
Total Dipole Moment    :     18.89320     -10.19915      -8.88092
                        -----------------------------------------
Magnitude (a.u.)       :     23.23459
Magnitude (Debye)      :     59.05764



--------------------
Rotational spectrum 
--------------------
 
Rotational constants in cm-1:     0.001583     0.001510     0.001267 
Rotational constants in MHz :    47.452654    45.264047    37.988805 

 Dipole components along the rotational axes: 
x,y,z [a.u.] :    -6.145399   -13.462378   -17.912140 
x,y,z [Debye]:   -15.620363   -34.218646   -45.529042 

 

Timings for individual modules:

Sum of individual times         ...     1002.130 sec (=  16.702 min)
GTO integral calculation        ...       14.311 sec (=   0.239 min)   1.4 %
SCF iterations                  ...      751.575 sec (=  12.526 min)  75.0 %
SCF Gradient evaluation         ...      236.244 sec (=   3.937 min)  23.6 %
                             ****ORCA TERMINATED NORMALLY****
TOTAL RUN TIME: 0 days 0 hours 16 minutes 50 seconds 379 msec
