
                                 *****************
                                 * O   R   C   A *
                                 *****************

                                            #,                                       
                                            ###                                      
                                            ####                                     
                                            #####                                    
                                            ######                                   
                                           ########,                                 
                                     ,,################,,,,,                         
                               ,,#################################,,                 
                          ,,##########################################,,             
                       ,#########################################, ''#####,          
                    ,#############################################,,   '####,        
                  ,##################################################,,,,####,       
                ,###########''''           ''''###############################       
              ,#####''   ,,,,##########,,,,          '''####'''          '####       
            ,##' ,,,,###########################,,,                        '##       
           ' ,,###''''                  '''############,,,                           
         ,,##''                                '''############,,,,        ,,,,,,###''
      ,#''                                            '''#######################'''  
     '                                                          ''''####''''         
             ,#######,   #######,   ,#######,      ##                                
            ,#'     '#,  ##    ##  ,#'     '#,    #''#        ######   ,####,        
            ##       ##  ##   ,#'  ##            #'  '#       #        #'  '#        
            ##       ##  #######   ##           ,######,      #####,   #    #        
            '#,     ,#'  ##    ##  '#,     ,#' ,#      #,         ##   #,  ,#        
             '#######'   ##     ##  '#######'  #'      '#     #####' # '####'        



                  #######################################################
                  #                        -***-                        #
                  #          Department of theory and spectroscopy      #
                  #    Directorship and core code : Frank Neese         #
                  #        Max Planck Institute fuer Kohlenforschung    #
                  #                Kaiser Wilhelm Platz 1               #
                  #                 D-45470 Muelheim/Ruhr               #
                  #                      Germany                        #
                  #                                                     #
                  #                  All rights reserved                #
                  #                        -***-                        #
                  #######################################################


                         Program Version 5.0.3 -  RELEASE  -


 With contributions from (in alphabetic order):
   Daniel Aravena         : Magnetic Suceptibility
   Michael Atanasov       : Ab Initio Ligand Field Theory (pilot matlab implementation)
   Alexander A. Auer      : GIAO ZORA, VPT2 properties, NMR spectrum
   Ute Becker             : Parallelization
   Giovanni Bistoni       : ED, misc. LED, open-shell LED, HFLD
   Martin Brehm           : Molecular dynamics
   Dmytro Bykov           : SCF Hessian
   Vijay G. Chilkuri      : MRCI spin determinant printing, contributions to CSF-ICE
   Dipayan Datta          : RHF DLPNO-CCSD density
   Achintya Kumar Dutta   : EOM-CC, STEOM-CC
   Dmitry Ganyushin       : Spin-Orbit,Spin-Spin,Magnetic field MRCI
   Miquel Garcia          : C-PCM and meta-GGA Hessian, CC/C-PCM, Gaussian charge scheme
   Yang Guo               : DLPNO-NEVPT2, F12-NEVPT2, CIM, IAO-localization
   Andreas Hansen         : Spin unrestricted coupled pair/coupled cluster methods
   Benjamin Helmich-Paris : MC-RPA, TRAH-SCF, COSX integrals
   Lee Huntington         : MR-EOM, pCC
   Robert Izsak           : Overlap fitted RIJCOSX, COSX-SCS-MP3, EOM
   Marcus Kettner         : VPT2
   Christian Kollmar      : KDIIS, OOCD, Brueckner-CCSD(T), CCSD density, CASPT2, CASPT2-K
   Simone Kossmann        : Meta GGA functionals, TD-DFT gradient, OOMP2, MP2 Hessian
   Martin Krupicka        : Initial AUTO-CI
   Lucas Lang             : DCDCAS
   Marvin Lechner         : AUTO-CI (C++ implementation), FIC-MRCC
   Dagmar Lenk            : GEPOL surface, SMD
   Dimitrios Liakos       : Extrapolation schemes; Compound Job, initial MDCI parallelization
   Dimitrios Manganas     : Further ROCIS development; embedding schemes
   Dimitrios Pantazis     : SARC Basis sets
   Anastasios Papadopoulos: AUTO-CI, single reference methods and gradients
   Taras Petrenko         : DFT Hessian,TD-DFT gradient, ASA, ECA, R-Raman, ABS, FL, XAS/XES, NRVS
   Peter Pinski           : DLPNO-MP2, DLPNO-MP2 Gradient
   Christoph Reimann      : Effective Core Potentials
   Marius Retegan         : Local ZFS, SOC
   Christoph Riplinger    : Optimizer, TS searches, QM/MM, DLPNO-CCSD(T), (RO)-DLPNO pert. Triples
   Tobias Risthaus        : Range-separated hybrids, TD-DFT gradient, RPA, STAB
   Michael Roemelt        : Original ROCIS implementation
   Masaaki Saitow         : Open-shell DLPNO-CCSD energy and density
   Barbara Sandhoefer     : DKH picture change effects
   Avijit Sen             : IP-ROCIS
   Kantharuban Sivalingam : CASSCF convergence, NEVPT2, FIC-MRCI
   Bernardo de Souza      : ESD, SOC TD-DFT
   Georgi Stoychev        : AutoAux, RI-MP2 NMR, DLPNO-MP2 response
   Willem Van den Heuvel  : Paramagnetic NMR
   Boris Wezisla          : Elementary symmetry handling
   Frank Wennmohs         : Technical directorship


 We gratefully acknowledge several colleagues who have allowed us to
 interface, adapt or use parts of their codes:
   Stefan Grimme, W. Hujo, H. Kruse, P. Pracht,  : VdW corrections, initial TS optimization,
                  C. Bannwarth, S. Ehlert          DFT functionals, gCP, sTDA/sTD-DF
   Ed Valeev, F. Pavosevic, A. Kumar             : LibInt (2-el integral package), F12 methods
   Garnet Chan, S. Sharma, J. Yang, R. Olivares  : DMRG
   Ulf Ekstrom                                   : XCFun DFT Library
   Mihaly Kallay                                 : mrcc  (arbitrary order and MRCC methods)
   Jiri Pittner, Ondrej Demel                    : Mk-CCSD
   Frank Weinhold                                : gennbo (NPA and NBO analysis)
   Christopher J. Cramer and Donald G. Truhlar   : smd solvation model
   Lars Goerigk                                  : TD-DFT with DH, B97 family of functionals
   V. Asgeirsson, H. Jonsson                     : NEB implementation
   FAccTs GmbH                                   : IRC, NEB, NEB-TS, DLPNO-Multilevel, CI-OPT
                                                   MM, QMMM, 2- and 3-layer-ONIOM, Crystal-QMMM,
                                                   LR-CPCM, SF, NACMEs, symmetry and pop. for TD-DFT,
                                                   nearIR, NL-DFT gradient (VV10), updates on ESD,
                                                   ML-optimized integration grids
   S Lehtola, MJT Oliveira, MAL Marques          : LibXC Library
   Liviu Ungur et al                             : ANISO software


 Your calculation uses the libint2 library for the computation of 2-el integrals
 For citations please refer to: http://libint.valeyev.net

 Your ORCA version has been built with support for libXC version: 5.1.0
 For citations please refer to: https://tddft.org/programs/libxc/

 This ORCA versions uses:
   CBLAS   interface :  Fast vector & matrix operations
   LAPACKE interface :  Fast linear algebra routines
   SCALAPACK package :  Parallel linear algebra routines
   Shared memory     :  Shared parallel matrices
   BLAS/LAPACK       :  OpenBLAS 0.3.15  USE64BITINT DYNAMIC_ARCH NO_AFFINITY SkylakeX SINGLE_THREADED
        Core in use  :  SkylakeX
   Copyright (c) 2011-2014, The OpenBLAS Project


================================================================================

----- Orbital basis set information -----
Your calculation utilizes the basis: def2-SVP
   F. Weigend and R. Ahlrichs, Phys. Chem. Chem. Phys. 7, 3297 (2005).

The basis set includes element-specific modifications.

Your calculation utilizes the basis: aug-cc-pVTZ 
    H, B-Ne : Obtained from the ccRepo (grant-hill.group.shef.ac.uk/ccrepo) Feb. 2017
              R. A. Kendall, T. H. Dunning, Jr., R. J. Harrison, J. Chem. Phys. 96, 6796 (1992)
         He : Obtained from the ccRepo (grant-hill.group.shef.ac.uk/ccrepo) Feb. 2017
              D. E. Woon, T. H. Dunning, Jr., J. Chem. Phys. 100, 2975 (1994)
  Li-Be, Na : Obtained from the ccRepo (grant-hill.group.shef.ac.uk/ccrepo) Feb. 2017
              B. P. Prascher, D. E. Woon, K. A. Peterson, T. H. Dunning, Jr., A. K. Wilson, Theor. Chem. Acc. 128, 69 (2011)
         Mg : Obtained from the Peterson Research Group Website (tyr0.chem.wsu.edu/~kipeters) Feb. 2017
              B. P. Prascher, D. E. Woon, K. A. Peterson, T. H. Dunning, Jr., A. K. Wilson, Theor. Chem. Acc. 128, 69 (2011)
      Al-Ar : Obtained from the ccRepo (grant-hill.group.shef.ac.uk/ccrepo) Feb. 2017
              D. E. Woon, T. H. Dunning, Jr., J. Chem. Phys. 98, 1358 (1993)
      Sc-Zn : Obtained from the ccRepo (grant-hill.group.shef.ac.uk/ccrepo) Feb. 2017
              N. B. Balabanov, K. A. Peterson, J. Chem. Phys. 123, 064107 (2005)
              N. B. Balabanov, K. A. Peterson, J. Chem. Phys. 125, 074110 (2006)
      Ga-Kr : Obtained from the ccRepo (grant-hill.group.shef.ac.uk/ccrepo) Feb. 2017
              A. K. Wilson, D. E. Woon, K. A. Peterson, T. H. Dunning, Jr., J. Chem. Phys. 110, 7667 (1999)
     Ag, Au : Obtained from the Peterson Research Group Website (tyr0.chem.wsu.edu/~kipeters) Feb. 2017
              K. A. Peterson, C. Puzzarini, Theor. Chem. Acc. 114, 283 (2005)

Your calculation utilizes the basis: cc-pVTZ 
       H, B-Ne : Obtained from the ccRepo (grant-hill.group.shef.ac.uk/ccrepo) Feb. 2017
                 T. H. Dunning, Jr., J. Chem. Phys. 90, 1007 (1989)
            He : Obtained from the ccRepo (grant-hill.group.shef.ac.uk/ccrepo) Feb. 2017
                 D. E. Woon, T. H. Dunning, Jr., J. Chem. Phys. 100, 2975 (1994)
  Li-Be, Na-Mg : Obtained from the ccRepo (grant-hill.group.shef.ac.uk/ccrepo) Feb. 2017
                 B. P. Prascher, D. E. Woon, K. A. Peterson, T. H. Dunning, Jr., A. K. Wilson, Theor. Chem. Acc. 128, 69 (2011)
         Al-Ar : Obtained from the ccRepo (grant-hill.group.shef.ac.uk/ccrepo) Feb. 2017
                 D. E. Woon, T. H. Dunning, Jr., J. Chem. Phys. 98, 1358 (1993)
            Ca : Obtained from the Peterson Research Group Website (tyr0.chem.wsu.edu/~kipeters) Feb. 2017
                 J. Koput, K. A. Peterson, J. Phys. Chem. 106, 9595 (2002)
         Sc-Zn : Obtained from the ccRepo (grant-hill.group.shef.ac.uk/ccrepo) Feb. 2017
                 N. B. Balabanov, K. A. Peterson, J. Chem. Phys. 123, 064107 (2005)
                 N. B. Balabanov, K. A. Peterson, J. Chem. Phys. 125, 074110 (2006)
         Ga-Kr : Obtained from the ccRepo (grant-hill.group.shef.ac.uk/ccrepo) Feb. 2017
                 A. K. Wilson, D. E. Woon, K. A. Peterson, T. H. Dunning, Jr., J. Chem. Phys. 110, 7667 (1999)
             Y : Obtained from the ccRepo (grant-hill.group.shef.ac.uk/ccrepo) Feb. 2017
                 K. A. Peterson, D. Figgen, M. Dolg, H. Stoll, J. Chem. Phys. 126, 124101 (2007)
        Ag, Au : Obtained from the Peterson Research Group Website (tyr0.chem.wsu.edu/~kipeters) Feb. 2017
                 K. A. Peterson, C. Puzzarini, Theor. Chem. Acc. 114, 283 (2005)

----- AuxJ basis set information -----
Your calculation utilizes the auxiliary basis: def2/J
   F. Weigend, Phys. Chem. Chem. Phys. 8, 1057 (2006).

================================================================================
                                        WARNINGS
                       Please study these warnings very carefully!
================================================================================

WARNING: The globally-selected AuxJ basis set is optimized for use with ECPs
         Make sure a suitable alternative is explicitly given all heavy elements (Z>36)

INFO   : the flag for use of the SHARK integral package has been found!

================================================================================
                                       INPUT FILE
================================================================================
NAME = final099.orca.inp
|  1> ! NoMOPrint PrintBasis #MINIPRINT SMALLPRINT LARGEPRINT
|  2> ! ALLPOP XYZFILE
|  3> #! BP86 3-21G   TightSCF
|  4> ! ENGRAD
|  5> ! B3LYP NormalPNO PModel #DecontractAux
|  6> #! VerySlowConv 
|  7>  %maxcore 5000
|  8>  %scf  maxiter   500  end 
|  9> 
| 10> %pal
| 11>     nprocs 32
| 12> end
| 13> 
| 14> %basis
| 15>     NewGTO O    # New basis for oxygen
| 16>         "aug-cc-pVTZ"
| 17>     end
| 18>     NewGTO C    # New basis for carbon
| 19>         "aug-cc-pVTZ"
| 20>     end
| 21>     NewGTO H    # New basis for hydrogen
| 22>         "cc-pVTZ"
| 23>     end
| 24> end
| 25> 
| 26> * xyz 0   1
| 27>   C  11.9  11.13  12.87  #1
| 28>   H  12.77  10.53  12.54  #2
| 29>   H  11.59  10.64  13.79  #3
| 30>   C  10.87  11.2  11.75  #4
| 31>   H  10.06  11.78  12.04  #5
| 32>   H  11.28  11.77  10.92  #6
| 33>   C  10.46  9.82  11.29  #7
| 34>   H  9.74  9.32  12.02  #8
| 35>   H  11.35  9.25  11.22  #9
| 36>   C  9.87  9.89  9.91  #10
| 37>   H  9.1  10.63  9.88  #11
| 38>   H  9.5  8.92  9.71  #12
| 39>   O  10.86  10.25  8.92  #13
| 40>   H  10.44  9.92  8.08  #14
| 41>   O  12.24  12.52  13.15  #15
| 42>   H  11.53  12.95  13.63  #16
| 43>   O  10.01  13.89  13.5  #17
| 44>   H  9.25  13.99  14.17  #18
| 45>   H  10.56  14.7  13.62  #19
| 46>   O  9.12  8.65  15.12  #20
| 47>   H  9.49  9.46  15.48  #21
| 48>   H  9.73  7.97  15.44  #22
| 49>   O  9.77  6.53  10.78  #23
| 50>   H  9.32  6.46  9.91  #24
| 51>   H  9.28  6.26  11.57  #25
| 52>   O  12.24  6.28  9.71  #26
| 53>   H  11.43  6.65  10.11  #27
| 54>   H  11.99  5.83  8.86  #28
| 55>   O  8  12.71  8.4  #29
| 56>   H  8.53  13.01  9.09  #30
| 57>   H  7.94  13.52  7.87  #31
| 58>   O  9.77  17.4  12.48  #32
| 59>   H  9.89  17.55  11.52  #33
| 60>   H  10.66  17.09  12.84  #34
| 61>   O  12.33  4.51  7.52  #35
| 62>   H  13.14  4.09  7.2  #36
| 63>   H  11.97  4.89  6.72  #37
| 64>   O  11.97  16.21  14.31  #38
| 65>   H  12.67  16.23  14.92  #39
| 66>   H  12.21  15.94  13.41  #40
| 67>   O  14.29  5.28  11.33  #41
| 68>   H  14.89  5.99  11.39  #42
| 69>   H  13.5  5.52  10.82  #43
| 70>   O  9.98  11.17  16.08  #44
| 71>   H  10.6  11.88  16.27  #45
| 72>   H  9.47  11.04  16.9  #46
| 73>   O  9.49  16.5  15.64  #47
| 74>   H  9.31  15.75  16.25  #48
| 75>   H  10.19  16.18  15.13  #49
| 76>   O  7.73  7.13  17.7  #50
| 77>   H  8.24  7.6  17.02  #51
| 78>   H  7.14  6.6  17.16  #52
| 79>   O  8.37  7.36  8.19  #53
| 80>   H  8.04  6.51  7.86  #54
| 81>   H  7.6  7.83  8.58  #55
| 82>   O  12.32  9.53  16.05  #56
| 83>   H  12.45  8.72  16.6  #57
| 84>   H  11.49  9.8  16.3  #58
| 85>   O  11.78  8.03  5.9  #59
| 86>   H  10.99  8.54  6.13  #60
| 87>   H  12.38  8.11  6.63  #61
| 88>   O  14.55  13.71  12.56  #62
| 89>   H  13.65  13.62  13  #63
| 90>   H  14.82  14.56  12.86  #64
| 91>   O  9.4  9.27  6.62  #65
| 92>   H  8.74  9.97  6.69  #66
| 93>   H  9.02  8.51  7.19  #67
| 94>   O  5.48  11.92  9.25  #68
| 95>   H  6.31  12.29  8.94  #69
| 96>   H  5.17  12.58  9.92  #70
| 97>   O  7.84  14.08  15.31  #71
| 98>   H  7.19  14.7  15  #72
| 99>   H  7.33  13.61  15.91  #73
|100>   O  15.25  9.51  12.06  #74
|101>   H  15.29  9.71  12.99  #75
|102>   H  15.35  10.35  11.54  #76
|103>   O  11.47  6.01  13.16  #77
|104>   H  11.2  6.12  12.2  #78
|105>   H  12.3  6.5  13.32  #79
|106>   O  10.41  15.19  9.08  #80
|107>   H  10.48  16.13  9.32  #81
|108>   H  9.71  14.84  9.62  #82
|109>   O  11.94  12.46  7.93  #83
|110>   H  12.51  12.93  8.54  #84
|111>   H  11.75  11.63  8.4  #85
|112>   O  6.37  6.84  11.53  #86
|113>   H  6.64  5.92  11.37  #87
|114>   H  7.13  7.27  12.03  #88
|115>   O  7.16  11.1  6.35  #89
|116>   H  6.78  11.28  5.52  #90
|117>   H  7.81  11.81  6.48  #91
|118>   O  13.56  9.54  9.39  #92
|119>   H  12.66  9.39  9.64  #93
|120>   H  14.09  9.22  10.12  #94
|121>   O  14.89  9.81  14.86  #95
|122>   H  15.52  10.43  15.24  #96
|123>   H  14.02  10.13  15.08  #97
|124>   O  11.01  3.03  9.7  #98
|125>   H  11.66  2.48  10.12  #99
|126>   H  11.34  3.66  9.01  #100
|127>   O  8.78  14.16  11  #101
|128>   H  8  14.77  11.18  #102
|129>   H  9.15  13.82  11.87  #103
|130>   O  7.98  8.61  12.81  #104
|131>   H  7.67  9.44  12.47  #105
|132>   H  8.24  8.65  13.74  #106
|133>   O  7.74  15.43  6.66  #107
|134>   H  8.75  15.55  6.45  #108
|135>   H  7.15  15.18  5.95  #109
|136>   O  10.3  6.36  15.74  #110
|137>   H  10.24  5.54  16.21  #111
|138>   H  10.69  6.27  14.85  #112
|139>   Q  0.6645  11.14$  14.76$  5.63$
|140>   Q  0.6645  10.81$  15.12$  7.11$
|141>   Q  -1.3290  10.75$  15.2$  6.23$
|142>   Q  0.6645  18.77$  10.93$  18.42$
|143>   Q  0.6645  19.88$  11.99$  18.05$
|144>   Q  -1.3290  19.54$  11.2$  18.13$
|145>   Q  0.6645  5.83$  1.58$  5.66$
|146>   Q  0.6645  6.72$  0.54$  6.07$
|147>   Q  -1.3290  6.57$  1.3$  5.83$
|148>   Q  0.6645  8.11$  3.86$  11.11$
|149>   Q  0.6645  7.29$  4.32$  9.84$
|150>   Q  -1.3290  7.53$  4.33$  10.66$
|151>   Q  0.6645  6.18$  9.95$  17.84$
|152>   Q  0.6645  7.43$  9.16$  18.2$
|153>   Q  -1.3290  6.88$  9.77$  18.3$
|154>   Q  0.6645  18.3$  6.29$  8.68$
|155>   Q  0.6645  17.58$  6.31$  7.14$
|156>   Q  -1.3290  18.05$  6.55$  7.85$
|157>   Q  0.6645  11.32$  2.08$  4.06$
|158>   Q  0.6645  11.17$  0.8$  3.26$
|159>   Q  -1.3290  10.92$  1.45$  3.74$
|160>   Q  0.6645  6.11$  7.77$  5.73$
|161>   Q  0.6645  5.08$  6.62$  5.62$
|162>   Q  -1.3290  5.38$  7.37$  5.89$
|163>   Q  0.6645  9.23$  9.91$  2.11$
|164>   Q  0.6645  10.48$  9.06$  1.91$
|165>   Q  -1.3290  9.79$  9.49$  1.66$
|166>   Q  0.6645  18.6$  15.15$  12.53$
|167>   Q  0.6645  17.56$  16.01$  12.92$
|168>   Q  -1.3290  18.2$  15.53$  13.09$
|169>   Q  0.6645  3.87$  18.61$  15.46$
|170>   Q  0.6645  5.22$  18.12$  15.01$
|171>   Q  -1.3290  4.4$  18.24$  14.93$
|172>   Q  0.6645  13.01$  9.76$  5.53$
|173>   Q  0.6645  14.06$  10.85$  5.08$
|174>   Q  -1.3290  13.31$  10.42$  5.07$
|175>   Q  0.6645  20.03$  10.87$  16.06$
|176>   Q  0.6645  19.58$  12.04$  15.19$
|177>   Q  -1.3290  19.98$  11.28$  15.33$
|178>   Q  0.6645  4.33$  7.92$  2.33$
|179>   Q  0.6645  3.18$  7.91$  1.46$
|180>   Q  -1.3290  3.65$  7.58$  2.03$
|181>   Q  0.6645  5.39$  15.99$  7.65$
|182>   Q  0.6645  4.14$  15.24$  8.01$
|183>   Q  -1.3290  4.79$  15.71$  8.18$
|184>   Q  0.6645  3.02$  7.33$  14.49$
|185>   Q  0.6645  3.52$  6.73$  15.81$
|186>   Q  -1.3290  3.25$  7.34$  15.31$
|187>   Q  0.6645  9.26$  10.04$  19.16$
|188>   Q  0.6645  10.04$  8.68$  19.2$
|189>   Q  -1.3290  9.9$  9.5$  18.99$
|190>   Q  0.6645  5.14$  16.07$  16.29$
|191>   Q  0.6645  5.75$  16.01$  17.64$
|192>   Q  -1.3290  5.2$  15.79$  17.06$
|193>   Q  0.6645  11.37$  16.86$  5.39$
|194>   Q  0.6645  10.67$  18.02$  4.91$
|195>   Q  -1.3290  11.31$  17.49$  4.91$
|196>   Q  0.6645  7.04$  17.4$  2.69$
|197>   Q  0.6645  6.81$  16.21$  3.71$
|198>   Q  -1.3290  6.92$  17.04$  3.47$
|199>   Q  0.6645  1.19$  15.7$  11.07$
|200>   Q  0.6645  2.66$  15.99$  11$
|201>   Q  -1.3290  1.99$  15.49$  11.07$
|202>   Q  0.6645  9.44$  5.92$  19.97$
|203>   Q  0.6645  8.26$  5.75$  19.04$
|204>   Q  -1.3290  8.83$  5.48$  19.56$
|205>   Q  0.6645  5.38$  9.98$  12.2$
|206>   Q  0.6645  6.06$  10.71$  11.02$
|207>   Q  -1.3290  6.01$  10.42$  11.83$
|208>   Q  0.6645  6.82$  16.93$  13.91$
|209>   Q  0.6645  5.45$  16.03$  13.54$
|210>   Q  -1.3290  6.3$  16.22$  13.67$
|211>   Q  0.6645  6.05$  9.94$  8.3$
|212>   Q  0.6645  5.47$  8.52$  7.92$
|213>   Q  -1.3290  5.82$  9.1$  8.41$
|214>   Q  0.6645  18.85$  9.78$  13.95$
|215>   Q  0.6645  19.19$  8.49$  13.05$
|216>   Q  -1.3290  18.76$  9.21$  13.3$
|217>   Q  0.6645  14$  19.87$  16.76$
|218>   Q  0.6645  12.84$  19.83$  15.68$
|219>   Q  -1.3290  13.65$  19.98$  15.97$
|220>   Q  0.6645  10.41$  19.61$  17.58$
|221>   Q  0.6645  10.51$  21.03$  18.18$
|222>   Q  -1.3290  10.13$  20.3$  17.98$
|223>   Q  0.6645  9.66$  11.82$  3.9$
|224>   Q  0.6645  8.32$  11.66$  3.28$
|225>   Q  -1.3290  9$  11.38$  3.66$
|226>   Q  0.6645  2.58$  15.76$  13.01$
|227>   Q  0.6645  3.46$  16.89$  13.86$
|228>   Q  -1.3290  3.21$  16.09$  13.52$
|229>   Q  0.6645  13.23$  15.71$  17.55$
|230>   Q  0.6645  14.28$  16.76$  17.1$
|231>   Q  -1.3290  13.51$  16.47$  17.31$
|232>   Q  0.6645  11.28$  12.39$  6.36$
|233>   Q  0.6645  11.03$  11.3$  5.44$
|234>   Q  -1.3290  10.9$  12.07$  5.71$
|235>   Q  0.6645  3.3$  4.37$  14.69$
|236>   Q  0.6645  4.65$  4.06$  14.04$
|237>   Q  -1.3290  4.1$  4.54$  14.49$
|238>   Q  0.6645  14.13$  7.62$  20.19$
|239>   Q  0.6645  13.23$  7.24$  18.89$
|240>   Q  -1.3290  13.56$  7.2$  19.71$
|241>   Q  0.6645  7.98$  15.41$  19.07$
|242>   Q  0.6645  6.82$  15.16$  20.09$
|243>   Q  -1.3290  7.17$  15.33$  19.32$
|244>   Q  0.6645  0.16$  12.77$  7.08$
|245>   Q  0.6645  1.54$  11.96$  7.48$
|246>   Q  -1.3290  0.71$  12.1$  7.17$
|247>   Q  0.6645  12.38$  15.48$  20.68$
|248>   Q  0.6645  12.37$  14.37$  21.7$
|249>   Q  -1.3290  12.02$  14.81$  21.1$
|250>   Q  0.6645  13.61$  11.34$  18.78$
|251>   Q  0.6645  14.03$  11.51$  17.36$
|252>   Q  -1.3290  14.08$  11.66$  18.15$
|253>   Q  0.6645  9.54$  2.41$  12.77$
|254>   Q  0.6645  9.85$  2.83$  11.23$
|255>   Q  -1.3290  9.4$  2.75$  11.96$
|256>   Q  0.6645  11.14$  11.44$  21.52$
|257>   Q  0.6645  10.05$  10.49$  22.31$
|258>   Q  -1.3290  10.36$  11.14$  21.79$
|259>   Q  0.6645  7.75$  2.39$  16.5$
|260>   Q  0.6645  7.31$  2.89$  15.12$
|261>   Q  -1.3290  7.79$  2.88$  15.81$
|262>   Q  0.6645  16.35$  14.42$  20.46$
|263>   Q  0.6645  16.09$  15.98$  20.79$
|264>   Q  -1.3290  16.44$  15.28$  20.38$
|265>   Q  0.6645  6.26$  1.76$  8.38$
|266>   Q  0.6645  5.05$  0.98$  9.04$
|267>   Q  -1.3290  5.54$  1.66$  8.87$
|268>   Q  0.6645  11.01$  11.7$  2.31$
|269>   Q  0.6645  12.32$  11.27$  2.95$
|270>   Q  -1.3290  11.81$  11.81$  2.56$
|271>   Q  0.6645  8.3$  8.49$  1.05$
|272>   Q  0.6645  7.23$  8.2$  -0.12$
|273>   Q  -1.3290  7.55$  8.23$  0.69$
|274>   Q  0.6645  20.25$  17.87$  14.6$
|275>   Q  0.6645  19.23$  16.97$  13.98$
|276>   Q  -1.3290  19.62$  17.7$  14.05$
|277>   Q  0.6645  15.49$  12.25$  1.33$
|278>   Q  0.6645  15.54$  11.46$  2.72$
|279>   Q  -1.3290  15.71$  11.6$  1.87$
|280>   Q  0.6645  7.65$  4.66$  4.56$
|281>   Q  0.6645  7.96$  4.77$  5.99$
|282>   Q  -1.3290  8.06$  4.98$  5.21$
|283>   Q  0.6645  7.84$  6.88$  4.77$
|284>   Q  0.6645  8.47$  8.35$  5.08$
|285>   Q  -1.3290  7.94$  7.75$  4.71$
|286>   Q  0.6645  5.84$  1.96$  13.28$
|287>   Q  0.6645  5.42$  1.95$  14.75$
|288>   Q  -1.3290  5.72$  2.3$  14.06$
|289>   Q  0.6645  15.71$  12.13$  4.98$
|290>   Q  0.6645  16.25$  10.68$  5.14$
|291>   Q  -1.3290  15.91$  11.36$  4.75$
|292>   Q  0.6645  10.53$  19.11$  9.96$
|293>   Q  0.6645  9.4$  18.28$  9.34$
|294>   Q  -1.3290  10.15$  18.4$  9.76$
|295>   Q  0.6645  5.66$  11.53$  13.65$
|296>   Q  0.6645  4.29$  11.75$  14.43$
|297>   Q  -1.3290  5.05$  11.96$  14.06$
|298>   Q  0.6645  13.51$  3.84$  19.97$
|299>   Q  0.6645  13.83$  5.3$  19.99$
|300>   Q  -1.3290  14.01$  4.51$  20$
|301>   Q  0.6645  15.37$  12.48$  11.65$
|302>   Q  0.6645  16.64$  11.69$  11.03$
|303>   Q  -1.3290  15.82$  11.95$  11.07$
|304>   Q  0.6645  14.13$  18.97$  18.99$
|305>   Q  0.6645  15.6$  19.45$  18.9$
|306>   Q  -1.3290  14.78$  19.39$  18.66$
|307>   Q  0.6645  17.18$  9.69$  19.85$
|308>   Q  0.6645  17.88$  10.45$  20.86$
|309>   Q  -1.3290  17.63$  10.34$  20.09$
|310>   Q  0.6645  12.92$  16.16$  10.84$
|311>   Q  0.6645  11.58$  15.46$  10.88$
|312>   Q  -1.3290  12.23$  15.84$  11.25$
|313>   Q  0.6645  3.96$  8.4$  18.87$
|314>   Q  0.6645  3.75$  8.51$  17.47$
|315>   Q  -1.3290  3.62$  8.14$  18.17$
|316>   Q  0.6645  3.3$  13.77$  5.9$
|317>   Q  0.6645  2.41$  14.85$  5.38$
|318>   Q  -1.3290  2.8$  14.44$  5.98$
|319>   Q  0.6645  14.94$  8.19$  16.18$
|320>   Q  0.6645  15.87$  6.91$  15.84$
|321>   Q  -1.3290  15.46$  7.5$  16.34$
|322>   Q  0.6645  5.96$  11.46$  2.12$
|323>   Q  0.6645  6.9$  12.63$  1.51$
|324>   Q  -1.3290  6.65$  11.96$  1.99$
|325>   Q  0.6645  10.59$  14.81$  17.82$
|326>   Q  0.6645  9.37$  13.94$  17.85$
|327>   Q  -1.3290  9.77$  14.67$  17.86$
|328>   Q  0.6645  17.93$  18.15$  16.63$
|329>   Q  0.6645  18.94$  17.01$  16.91$
|330>   Q  -1.3290  18.23$  17.43$  17.02$
|331>   Q  0.6645  19.53$  11.04$  6.16$
|332>   Q  0.6645  18.88$  12.39$  6.05$
|333>   Q  -1.3290  18.88$  11.56$  6.04$
|334>   Q  0.6645  15.21$  16.78$  11.97$
|335>   Q  0.6645  15.37$  17.71$  13.17$
|336>   Q  -1.3290  15.56$  17.06$  12.67$
|337>   Q  0.6645  15.32$  3.36$  15.93$
|338>   Q  0.6645  14.21$  3.14$  14.81$
|339>   Q  -1.3290  14.95$  2.97$  15.24$
|340>   Q  0.6645  16.48$  7.94$  11.68$
|341>   Q  0.6645  17.22$  6.62$  11.32$
|342>   Q  -1.3290  16.61$  7.08$  11.68$
|343>   Q  0.6645  9.47$  2.22$  8.81$
|344>   Q  0.6645  8.97$  1.36$  7.72$
|345>   Q  -1.3290  8.89$  1.94$  8.29$
|346>   Q  0.6645  4.54$  12.08$  6.16$
|347>   Q  0.6645  4.38$  12.01$  4.6$
|348>   Q  -1.3290  4.61$  12.39$  5.36$
|349>   Q  0.6645  11.57$  6.31$  4.93$
|350>   Q  0.6645  10.6$  5.12$  4.73$
|351>   Q  -1.3290  11.33$  5.51$  4.86$
|352>   Q  0.6645  8.44$  3.49$  2.2$
|353>   Q  0.6645  9.67$  2.66$  2.5$
|354>   Q  -1.3290  9.23$  3.27$  2.12$
|355>   Q  0.6645  12.34$  17.59$  20.15$
|356>   Q  0.6645  13.08$  16.7$  19.05$
|357>   Q  -1.3290  12.88$  17$  19.87$
|358>   Q  0.6645  13.52$  21.01$  12.63$
|359>   Q  0.6645  13.06$  22.35$  12.17$
|360>   Q  -1.3290  12.95$  21.54$  12.38$
|361>   Q  0.6645  20.44$  10.29$  10.64$
|362>   Q  0.6645  20.91$  9.85$  9.37$
|363>   Q  -1.3290  20.85$  9.79$  10.18$
|364>   Q  0.6645  6.58$  15.97$  11.8$
|365>   Q  0.6645  6.01$  15.6$  10.29$
|366>   Q  -1.3290  6.56$  15.92$  10.9$
|367>   Q  0.6645  13.33$  13.6$  5.35$
|368>   Q  0.6645  12.1$  13.16$  4.52$
|369>   Q  -1.3290  12.75$  13.66$  4.7$
|370>   Q  0.6645  7.29$  2.22$  11.55$
|371>   Q  0.6645  6.35$  1.53$  10.58$
|372>   Q  -1.3290  6.74$  1.64$  11.32$
|373>   Q  0.6645  10.03$  20.93$  13.26$
|374>   Q  0.6645  11.48$  21.1$  13.37$
|375>   Q  -1.3290  10.72$  20.97$  13.7$
|376>   Q  0.6645  14.73$  19.14$  7.46$
|377>   Q  0.6645  13.3$  19.17$  8.18$
|378>   Q  -1.3290  14.08$  18.87$  8$
|379>   Q  0.6645  9.95$  4.42$  18.49$
|380>   Q  0.6645  11.39$  4.04$  18.44$
|381>   Q  -1.3290  10.66$  4.23$  18.1$
|382>   Q  0.6645  6.36$  8.58$  3.27$
|383>   Q  0.6645  6.21$  9.05$  1.82$
|384>   Q  -1.3290  5.95$  8.94$  2.62$
|385>   Q  0.6645  15.94$  8.01$  18.51$
|386>   Q  0.6645  17.13$  7.67$  19.47$
|387>   Q  -1.3290  16.4$  8.04$  19.23$
|388>   Q  0.6645  13.26$  2.86$  11.92$
|389>   Q  0.6645  13.88$  2.2$  10.64$
|390>   Q  -1.3290  13.34$  2.28$  11.31$
|391>   Q  0.6645  6.44$  4.13$  7.8$
|392>   Q  0.6645  7.86$  3.57$  7.77$
|393>   Q  -1.3290  7.26$  4.17$  7.8$
|394>   Q  0.6645  14.05$  2.92$  5.92$
|395>   Q  0.6645  15.4$  2.49$  6.62$
|396>   Q  -1.3290  14.65$  2.92$  6.55$
|397>   Q  0.6645  4.95$  19.2$  8.32$
|398>   Q  0.6645  6.26$  18.59$  7.96$
|399>   Q  -1.3290  5.5$  18.88$  7.75$
|400>   Q  0.6645  14.25$  16.95$  9.16$
|401>   Q  0.6645  14.51$  15.54$  9.57$
|402>   Q  -1.3290  14.32$  16.35$  9.72$
|403>   Q  0.6645  18.07$  14.02$  3.28$
|404>   Q  0.6645  17.38$  12.87$  3.5$
|405>   Q  -1.3290  17.41$  13.65$  3.56$
|406>   Q  0.6645  19.3$  5.47$  10.33$
|407>   Q  0.6645  19.4$  6.73$  11.25$
|408>   Q  -1.3290  19.06$  6.21$  10.7$
|409>   Q  0.6645  16.7$  16.28$  17.18$
|410>   Q  0.6645  16.09$  15.61$  18.46$
|411>   Q  -1.3290  16.14$  15.77$  17.62$
|412>   Q  0.6645  11.74$  16.22$  2.78$
|413>   Q  0.6645  11.96$  14.7$  2.34$
|414>   Q  -1.3290  11.53$  15.42$  2.51$
|415>   Q  0.6645  15.5$  20.23$  12.86$
|416>   Q  0.6645  14.71$  19.86$  14.18$
|417>   Q  -1.3290  15.04$  19.77$  13.4$
|418>   Q  0.6645  7.61$  19.05$  14.16$
|419>   Q  0.6645  8.4$  18.17$  13.06$
|420>   Q  -1.3290  7.78$  18.69$  13.4$
|421>   Q  0.6645  5.27$  13.73$  17.22$
|422>   Q  0.6645  5.37$  12.36$  16.33$
|423>   Q  -1.3290  5.4$  12.87$  17.06$
|424>   Q  0.6645  17.23$  5.33$  3.2$
|425>   Q  0.6645  16.32$  6.32$  2.4$
|426>   Q  -1.3290  16.6$  5.9$  3.09$
|427>   Q  0.6645  17.28$  12.32$  15.63$
|428>   Q  0.6645  17.39$  10.83$  16.02$
|429>   Q  -1.3290  17.11$  11.49$  15.6$
|430>   Q  0.6645  5.83$  18.91$  11.97$
|431>   Q  0.6645  4.57$  18.86$  11.17$
|432>   Q  -1.3290  5.13$  19.22$  11.68$
|433>   Q  0.6645  5.01$  7.78$  11.19$
|434>   Q  0.6645  4.52$  8.81$  10.24$
|435>   Q  -1.3290  4.44$  8.29$  10.88$
|436>   Q  0.6645  18.96$  11.99$  11.48$
|437>   Q  0.6645  18.36$  10.63$  11.92$
|438>   Q  -1.3290  18.61$  11.26$  11.35$
|439>   Q  0.6645  15.43$  13.04$  6.79$
|440>   Q  0.6645  15.51$  14.56$  6.29$
|441>   Q  -1.3290  15.3$  13.71$  6.28$
|442>   Q  0.6645  17.39$  8.35$  16.87$
|443>   Q  0.6645  18.88$  8.8$  17.08$
|444>   Q  -1.3290  18.09$  8.83$  16.75$
|445>   Q  0.6645  7.69$  21.77$  11.64$
|446>   Q  0.6645  7.9$  20.3$  12.1$
|447>   Q  -1.3290  8.13$  21.05$  11.78$
|448>   Q  0.6645  5.83$  3.21$  18.87$
|449>   Q  0.6645  5.72$  4.44$  17.89$
|450>   Q  -1.3290  5.43$  3.86$  18.47$
|451>   Q  0.6645  12.09$  9.97$  19.92$
|452>   Q  0.6645  13.13$  10.41$  20.96$
|453>   Q  -1.3290  12.64$  10.48$  20.27$
|454>   Q  0.6645  17.26$  11.75$  7.43$
|455>   Q  0.6645  16.23$  11.18$  8.48$
|456>   Q  -1.3290  16.54$  11.67$  7.84$
|457>   Q  0.6645  17.79$  14.4$  6.78$
|458>   Q  0.6645  17.85$  14.22$  5.23$
|459>   Q  -1.3290  18.17$  14.27$  6.01$
|460>   Q  0.6645  19.26$  7.65$  4.8$
|461>   Q  0.6645  18.1$  8.5$  4.55$
|462>   Q  -1.3290  18.86$  8.22$  4.36$
|463>   Q  0.6645  4.33$  9.32$  20.92$
|464>   Q  0.6645  5.65$  9.4$  20.15$
|465>   Q  -1.3290  4.94$  9.03$  20.42$
|466>   Q  0.6645  8.9$  14.47$  4.75$
|467>   Q  0.6645  9.72$  14.8$  3.52$
|468>   Q  -1.3290  9.06$  14.46$  3.93$
|469>   Q  0.6645  11.31$  21.21$  11.16$
|470>   Q  0.6645  9.87$  20.92$  10.81$
|471>   Q  -1.3290  10.72$  20.95$  10.65$
|472>   Q  0.6645  14.61$  6.79$  13.1$
|473>   Q  0.6645  14.28$  7.85$  14.05$
|474>   Q  -1.3290  14.19$  7.12$  13.73$
|475>   Q  0.6645  3.86$  10.54$  16.43$
|476>   Q  0.6645  5.01$  9.69$  15.83$
|477>   Q  -1.3290  4.57$  10.03$  16.46$
|478>   Q  0.6645  2.17$  9.24$  9.39$
|479>   Q  0.6645  2.3$  8.49$  7.99$
|480>   Q  -1.3290  2.42$  9.15$  8.58$
|481>   Q  0.6645  7.25$  12.34$  18.03$
|482>   Q  0.6645  8.02$  12.85$  19.25$
|483>   Q  -1.3290  7.91$  12.49$  18.5$
|484>   Q  0.6645  18.17$  14.49$  15.1$
|485>   Q  0.6645  17.59$  14.11$  16.63$
|486>   Q  -1.3290  18.09$  14.07$  15.9$
|487>   Q  0.6645  5.81$  5.04$  15.58$
|488>   Q  0.6645  7.22$  4.64$  16.08$
|489>   Q  -1.3290  6.45$  5.04$  16.13$
|490>   Q  0.6645  7.04$  6.13$  1.04$
|491>   Q  0.6645  5.83$  5.5$  0.29$
|492>   Q  -1.3290  6.47$  5.56$  0.88$
|493>   Q  0.6645  14.86$  0.43$  8.58$
|494>   Q  0.6645  14.07$  1.72$  8$
|495>   Q  -1.3290  14.2$  0.99$  8.45$
|496>   Q  0.6645  2.33$  12.07$  11.86$
|497>   Q  0.6645  0.92$  11.53$  12.17$
|498>   Q  -1.3290  1.47$  12.1$  11.86$
|499>   Q  0.6645  -0.57$  10.74$  14.07$
|500>   Q  0.6645  -0.01$  9.45$  13.18$
|501>   Q  -1.3290  0.04$  10.19$  13.67$
|502>   Q  0.6645  15.11$  16.99$  7.02$
|503>   Q  0.6645  16.68$  16.59$  6.75$
|504>   Q  -1.3290  15.87$  16.5$  7.01$
|505>   Q  0.6645  12.35$  14.03$  19.09$
|506>   Q  0.6645  13.32$  13.46$  18.04$
|507>   Q  -1.3290  12.77$  14.01$  18.37$
|508>   Q  0.6645  4.43$  3.38$  8.29$
|509>   Q  0.6645  4.24$  4.9$  8.28$
|510>   Q  -1.3290  4.46$  4.16$  7.95$
|511>   Q  0.6645  7.76$  17.08$  15.83$
|512>   Q  0.6645  6.78$  18.09$  16.64$
|513>   Q  -1.3290  7.07$  17.62$  15.98$
|514>   Q  0.6645  17.28$  7.71$  14.56$
|515>   Q  0.6645  17.3$  6.63$  13.61$
|516>   Q  -1.3290  17.41$  6.92$  14.37$
|517>   Q  0.6645  14.67$  7.47$  6.99$
|518>   Q  0.6645  14.27$  8.7$  7.8$
|519>   Q  -1.3290  14.38$  8.26$  7.1$
|520>   Q  0.6645  1.73$  7.44$  5.63$
|521>   Q  0.6645  3.2$  7.34$  6.18$
|522>   Q  -1.3290  2.34$  7.27$  6.21$
|523>   Q  0.6645  17.97$  9.72$  9.61$
|524>   Q  0.6645  17.74$  8.39$  8.7$
|525>   Q  -1.3290  17.61$  9.2$  9$
|526>   Q  0.6645  3.31$  6.88$  12.12$
|527>   Q  0.6645  3.57$  5.88$  13.26$
|528>   Q  -1.3290  3.1$  6.39$  12.79$
|529>   Q  0.6645  9.92$  14.2$  21.13$
|530>   Q  0.6645  9.49$  12.79$  21.41$
|531>   Q  -1.3290  9.35$  13.57$  21.17$
|532>   Q  0.6645  14.46$  12.9$  9.78$
|533>   Q  0.6645  13.67$  13.95$  10.55$
|534>   Q  -1.3290  13.98$  13.57$  9.86$
|535>   Q  0.6645  10.24$  1.13$  14.76$
|536>   Q  0.6645  9.63$  2.58$  15.03$
|537>   Q  -1.3290  10.25$  1.99$  14.83$
|538>   Q  0.6645  16.77$  4.22$  17.97$
|539>   Q  0.6645  15.34$  4.63$  18.45$
|540>   Q  -1.3290  15.93$  4.23$  17.97$
|541>   Q  0.6645  3$  18.16$  10.08$
|542>   Q  0.6645  4.08$  17.18$  9.39$
|543>   Q  -1.3290  3.64$  17.57$  10.02$
|544>   Q  0.6645  16.22$  6.16$  5.1$
|545>   Q  0.6645  15.43$  5.12$  5.99$
|546>   Q  -1.3290  15.92$  5.81$  5.83$
|547>   Q  0.6645  9.52$  18.03$  20.5$
|548>   Q  0.6645  9.38$  19.04$  19.32$
|549>   Q  -1.3290  9.12$  18.51$  19.92$
|550>   Q  0.6645  10.66$  6.64$  2.02$
|551>   Q  0.6645  9.69$  5.52$  1.62$
|552>   Q  -1.3290  10.19$  6.18$  1.5$
|553>   Q  0.6645  12.11$  17.86$  16.84$
|554>   Q  0.6645  10.7$  17.84$  16.24$
|555>   Q  -1.3290  11.38$  18.19$  16.65$
|556>   Q  0.6645  5.8$  13.69$  4.54$
|557>   Q  0.6645  7$  14.26$  3.87$
|558>   Q  -1.3290  6.26$  14.33$  4.29$
|559>   Q  0.6645  17.28$  9.17$  6.73$
|560>   Q  0.6645  16.01$  8.79$  6.07$
|561>   Q  -1.3290  16.81$  9.02$  6.06$
|562>   Q  0.6645  13.44$  2.94$  3.34$
|563>   Q  0.6645  12.55$  4$  4.22$
|564>   Q  -1.3290  12.91$  3.21$  3.97$
|565>   Q  0.6645  2.61$  11.16$  3.54$
|566>   Q  0.6645  3.47$  10.28$  2.74$
|567>   Q  -1.3290  3.34$  10.96$  3.19$
|568>   Q  0.6645  16.77$  15.28$  8.47$
|569>   Q  0.6645  16.75$  13.8$  8.74$
|570>   Q  -1.3290  17.12$  14.54$  8.63$
|571>   Q  0.6645  3.52$  6.9$  9.92$
|572>   Q  0.6645  2.45$  5.81$  9.53$
|573>   Q  -1.3290  3.14$  6.28$  9.44$
|574>   Q  0.6645  19.91$  14.14$  10.69$
|575>   Q  0.6645  18.53$  14.43$  10.18$
|576>   Q  -1.3290  19.09$  14.26$  10.76$
|577>   Q  0.6645  16.27$  11.85$  20.4$
|578>   Q  0.6645  15.1$  12.77$  19.88$
|579>   Q  -1.3290  15.73$  12.5$  20.4$
|580>   Q  0.6645  4.07$  12.03$  8.11$
|581>   Q  0.6645  3.24$  10.72$  7.91$
|582>   Q  -1.3290  3.49$  11.52$  7.71$
|583>   Q  0.6645  14.64$  8.51$  0.63$
|584>   Q  0.6645  14.92$  10.02$  1.17$
|585>   Q  -1.3290  14.47$  9.33$  0.82$
|586>   Q  0.6645  13.62$  6.61$  16.64$
|587>   Q  0.6645  12.06$  6.65$  16.29$
|588>   Q  -1.3290  12.78$  6.77$  16.75$
|589>   Q  0.6645  11.81$  3.09$  14.28$
|590>   Q  0.6645  12.29$  4.43$  13.59$
|591>   Q  -1.3290  12.36$  3.57$  13.84$
|592>   Q  0.6645  18.3$  5.32$  15.13$
|593>   Q  0.6645  19.37$  4.33$  14.77$
|594>   Q  -1.3290  18.72$  4.61$  15.19$
|595>   Q  0.6645  4.96$  4.53$  4.47$
|596>   Q  0.6645  4.56$  4.47$  6.03$
|597>   Q  -1.3290  4.54$  4.74$  5.19$
|598>   Q  0.6645  4.29$  13.05$  12.29$
|599>   Q  0.6645  3.19$  13.83$  11.49$
|600>   Q  -1.3290  3.85$  13.27$  11.61$
|601>   Q  0.6645  2.26$  12.06$  15.71$
|602>   Q  0.6645  1.94$  10.7$  15.36$
|603>   Q  -1.3290  2.48$  11.28$  15.47$
|604>   Q  0.6645  15.91$  3.31$  9.46$
|605>   Q  0.6645  15.01$  4.15$  10.4$
|606>   Q  -1.3290  15.47$  3.5$  10.15$
|607>   Q  0.6645  8.93$  21.22$  16.53$
|608>   Q  0.6645  9.35$  20.99$  14.96$
|609>   Q  -1.3290  8.9$  21.31$  15.64$
|610>   Q  0.6645  15.76$  2.7$  12.2$
|611>   Q  0.6645  16.11$  2.84$  13.7$
|612>   Q  -1.3290  16.18$  2.55$  12.92$
|613>   Q  0.6645  15.59$  14.54$  3.4$
|614>   Q  0.6645  14.1$  14.72$  3.59$
|615>   Q  -1.3290  14.84$  14.95$  3.33$
|616>   Q  0.6645  6.29$  3.11$  2.9$
|617>   Q  0.6645  6.24$  4.65$  2.52$
|618>   Q  -1.3290  6.32$  3.97$  3.04$
|619>   Q  0.6645  12.47$  8.82$  3.73$
|620>   Q  0.6645  12.89$  8.73$  2.3$
|621>   Q  -1.3290  12.32$  8.74$  2.9$
|622>   Q  0.6645  4.85$  8.29$  14.25$
|623>   Q  0.6645  6.19$  8.71$  13.52$
|624>   Q  -1.3290  5.52$  8.79$  14.02$
|625>   Q  0.6645  7.53$  16.81$  8.01$
|626>   Q  0.6645  7.38$  16.95$  9.46$
|627>   Q  -1.3290  7.57$  17.23$  8.7$
|628>   Q  0.6645  10.29$  7.35$  21.44$
|629>   Q  0.6645  11.52$  7.18$  20.61$
|630>   Q  -1.3290  10.72$  7.36$  20.75$
|631>   Q  0.6645  6.22$  19.58$  18.23$
|632>   Q  0.6645  7.39$  18.62$  18.8$
|633>   Q  -1.3290  6.69$  18.84$  18.34$
|634>   Q  0.6645  20.85$  8.18$  11.38$
|635>   Q  0.6645  21.43$  7$  12.27$
|636>   Q  -1.3290  20.97$  7.7$  12.08$
|637>   Q  0.6645  12.96$  12.86$  1.64$
|638>   Q  0.6645  14.13$  14.04$  1.59$
|639>   Q  -1.3290  13.54$  13.44$  1.29$
|640> *
|641> 
|642>                          ****END OF INPUT****
================================================================================

                     *******************************
                     * Energy+Gradient Calculation *
                     *******************************

---------------------------------
CARTESIAN COORDINATES (ANGSTROEM)
---------------------------------
  C     11.900000   11.130000   12.870000
  H     12.770000   10.530000   12.540000
  H     11.590000   10.640000   13.790000
  C     10.870000   11.200000   11.750000
  H     10.060000   11.780000   12.040000
  H     11.280000   11.770000   10.920000
  C     10.460000    9.820000   11.290000
  H      9.740000    9.320000   12.020000
  H     11.350000    9.250000   11.220000
  C      9.870000    9.890000    9.910000
  H      9.100000   10.630000    9.880000
  H      9.500000    8.920000    9.710000
  O     10.860000   10.250000    8.920000
  H     10.440000    9.920000    8.080000
  O     12.240000   12.520000   13.150000
  H     11.530000   12.950000   13.630000
  O     10.010000   13.890000   13.500000
  H      9.250000   13.990000   14.170000
  H     10.560000   14.700000   13.620000
  O      9.120000    8.650000   15.120000
  H      9.490000    9.460000   15.480000
  H      9.730000    7.970000   15.440000
  O      9.770000    6.530000   10.780000
  H      9.320000    6.460000    9.910000
  H      9.280000    6.260000   11.570000
  O     12.240000    6.280000    9.710000
  H     11.430000    6.650000   10.110000
  H     11.990000    5.830000    8.860000
  O      8.000000   12.710000    8.400000
  H      8.530000   13.010000    9.090000
  H      7.940000   13.520000    7.870000
  O      9.770000   17.400000   12.480000
  H      9.890000   17.550000   11.520000
  H     10.660000   17.090000   12.840000
  O     12.330000    4.510000    7.520000
  H     13.140000    4.090000    7.200000
  H     11.970000    4.890000    6.720000
  O     11.970000   16.210000   14.310000
  H     12.670000   16.230000   14.920000
  H     12.210000   15.940000   13.410000
  O     14.290000    5.280000   11.330000
  H     14.890000    5.990000   11.390000
  H     13.500000    5.520000   10.820000
  O      9.980000   11.170000   16.080000
  H     10.600000   11.880000   16.270000
  H      9.470000   11.040000   16.900000
  O      9.490000   16.500000   15.640000
  H      9.310000   15.750000   16.250000
  H     10.190000   16.180000   15.130000
  O      7.730000    7.130000   17.700000
  H      8.240000    7.600000   17.020000
  H      7.140000    6.600000   17.160000
  O      8.370000    7.360000    8.190000
  H      8.040000    6.510000    7.860000
  H      7.600000    7.830000    8.580000
  O     12.320000    9.530000   16.050000
  H     12.450000    8.720000   16.600000
  H     11.490000    9.800000   16.300000
  O     11.780000    8.030000    5.900000
  H     10.990000    8.540000    6.130000
  H     12.380000    8.110000    6.630000
  O     14.550000   13.710000   12.560000
  H     13.650000   13.620000   13.000000
  H     14.820000   14.560000   12.860000
  O      9.400000    9.270000    6.620000
  H      8.740000    9.970000    6.690000
  H      9.020000    8.510000    7.190000
  O      5.480000   11.920000    9.250000
  H      6.310000   12.290000    8.940000
  H      5.170000   12.580000    9.920000
  O      7.840000   14.080000   15.310000
  H      7.190000   14.700000   15.000000
  H      7.330000   13.610000   15.910000
  O     15.250000    9.510000   12.060000
  H     15.290000    9.710000   12.990000
  H     15.350000   10.350000   11.540000
  O     11.470000    6.010000   13.160000
  H     11.200000    6.120000   12.200000
  H     12.300000    6.500000   13.320000
  O     10.410000   15.190000    9.080000
  H     10.480000   16.130000    9.320000
  H      9.710000   14.840000    9.620000
  O     11.940000   12.460000    7.930000
  H     12.510000   12.930000    8.540000
  H     11.750000   11.630000    8.400000
  O      6.370000    6.840000   11.530000
  H      6.640000    5.920000   11.370000
  H      7.130000    7.270000   12.030000
  O      7.160000   11.100000    6.350000
  H      6.780000   11.280000    5.520000
  H      7.810000   11.810000    6.480000
  O     13.560000    9.540000    9.390000
  H     12.660000    9.390000    9.640000
  H     14.090000    9.220000   10.120000
  O     14.890000    9.810000   14.860000
  H     15.520000   10.430000   15.240000
  H     14.020000   10.130000   15.080000
  O     11.010000    3.030000    9.700000
  H     11.660000    2.480000   10.120000
  H     11.340000    3.660000    9.010000
  O      8.780000   14.160000   11.000000
  H      8.000000   14.770000   11.180000
  H      9.150000   13.820000   11.870000
  O      7.980000    8.610000   12.810000
  H      7.670000    9.440000   12.470000
  H      8.240000    8.650000   13.740000
  O      7.740000   15.430000    6.660000
  H      8.750000   15.550000    6.450000
  H      7.150000   15.180000    5.950000
  O     10.300000    6.360000   15.740000
  H     10.240000    5.540000   16.210000
  H     10.690000    6.270000   14.850000
  Q     11.140000   14.760000    5.630000
  Q     10.810000   15.120000    7.110000
  Q     10.750000   15.200000    6.230000
  Q     18.770000   10.930000   18.420000
  Q     19.880000   11.990000   18.050000
  Q     19.540000   11.200000   18.130000
  Q      5.830000    1.580000    5.660000
  Q      6.720000    0.540000    6.070000
  Q      6.570000    1.300000    5.830000
  Q      8.110000    3.860000   11.110000
  Q      7.290000    4.320000    9.840000
  Q      7.530000    4.330000   10.660000
  Q      6.180000    9.950000   17.840000
  Q      7.430000    9.160000   18.200000
  Q      6.880000    9.770000   18.300000
  Q     18.300000    6.290000    8.680000
  Q     17.580000    6.310000    7.140000
  Q     18.050000    6.550000    7.850000
  Q     11.320000    2.080000    4.060000
  Q     11.170000    0.800000    3.260000
  Q     10.920000    1.450000    3.740000
  Q      6.110000    7.770000    5.730000
  Q      5.080000    6.620000    5.620000
  Q      5.380000    7.370000    5.890000
  Q      9.230000    9.910000    2.110000
  Q     10.480000    9.060000    1.910000
  Q      9.790000    9.490000    1.660000
  Q     18.600000   15.150000   12.530000
  Q     17.560000   16.010000   12.920000
  Q     18.200000   15.530000   13.090000
  Q      3.870000   18.610000   15.460000
  Q      5.220000   18.120000   15.010000
  Q      4.400000   18.240000   14.930000
  Q     13.010000    9.760000    5.530000
  Q     14.060000   10.850000    5.080000
  Q     13.310000   10.420000    5.070000
  Q     20.030000   10.870000   16.060000
  Q     19.580000   12.040000   15.190000
  Q     19.980000   11.280000   15.330000
  Q      4.330000    7.920000    2.330000
  Q      3.180000    7.910000    1.460000
  Q      3.650000    7.580000    2.030000
  Q      5.390000   15.990000    7.650000
  Q      4.140000   15.240000    8.010000
  Q      4.790000   15.710000    8.180000
  Q      3.020000    7.330000   14.490000
  Q      3.520000    6.730000   15.810000
  Q      3.250000    7.340000   15.310000
  Q      9.260000   10.040000   19.160000
  Q     10.040000    8.680000   19.200000
  Q      9.900000    9.500000   18.990000
  Q      5.140000   16.070000   16.290000
  Q      5.750000   16.010000   17.640000
  Q      5.200000   15.790000   17.060000
  Q     11.370000   16.860000    5.390000
  Q     10.670000   18.020000    4.910000
  Q     11.310000   17.490000    4.910000
  Q      7.040000   17.400000    2.690000
  Q      6.810000   16.210000    3.710000
  Q      6.920000   17.040000    3.470000
  Q      1.190000   15.700000   11.070000
  Q      2.660000   15.990000   11.000000
  Q      1.990000   15.490000   11.070000
  Q      9.440000    5.920000   19.970000
  Q      8.260000    5.750000   19.040000
  Q      8.830000    5.480000   19.560000
  Q      5.380000    9.980000   12.200000
  Q      6.060000   10.710000   11.020000
  Q      6.010000   10.420000   11.830000
  Q      6.820000   16.930000   13.910000
  Q      5.450000   16.030000   13.540000
  Q      6.300000   16.220000   13.670000
  Q      6.050000    9.940000    8.300000
  Q      5.470000    8.520000    7.920000
  Q      5.820000    9.100000    8.410000
  Q     18.850000    9.780000   13.950000
  Q     19.190000    8.490000   13.050000
  Q     18.760000    9.210000   13.300000
  Q     14.000000   19.870000   16.760000
  Q     12.840000   19.830000   15.680000
  Q     13.650000   19.980000   15.970000
  Q     10.410000   19.610000   17.580000
  Q     10.510000   21.030000   18.180000
  Q     10.130000   20.300000   17.980000
  Q      9.660000   11.820000    3.900000
  Q      8.320000   11.660000    3.280000
  Q      9.000000   11.380000    3.660000
  Q      2.580000   15.760000   13.010000
  Q      3.460000   16.890000   13.860000
  Q      3.210000   16.090000   13.520000
  Q     13.230000   15.710000   17.550000
  Q     14.280000   16.760000   17.100000
  Q     13.510000   16.470000   17.310000
  Q     11.280000   12.390000    6.360000
  Q     11.030000   11.300000    5.440000
  Q     10.900000   12.070000    5.710000
  Q      3.300000    4.370000   14.690000
  Q      4.650000    4.060000   14.040000
  Q      4.100000    4.540000   14.490000
  Q     14.130000    7.620000   20.190000
  Q     13.230000    7.240000   18.890000
  Q     13.560000    7.200000   19.710000
  Q      7.980000   15.410000   19.070000
  Q      6.820000   15.160000   20.090000
  Q      7.170000   15.330000   19.320000
  Q      0.160000   12.770000    7.080000
  Q      1.540000   11.960000    7.480000
  Q      0.710000   12.100000    7.170000
  Q     12.380000   15.480000   20.680000
  Q     12.370000   14.370000   21.700000
  Q     12.020000   14.810000   21.100000
  Q     13.610000   11.340000   18.780000
  Q     14.030000   11.510000   17.360000
  Q     14.080000   11.660000   18.150000
  Q      9.540000    2.410000   12.770000
  Q      9.850000    2.830000   11.230000
  Q      9.400000    2.750000   11.960000
  Q     11.140000   11.440000   21.520000
  Q     10.050000   10.490000   22.310000
  Q     10.360000   11.140000   21.790000
  Q      7.750000    2.390000   16.500000
  Q      7.310000    2.890000   15.120000
  Q      7.790000    2.880000   15.810000
  Q     16.350000   14.420000   20.460000
  Q     16.090000   15.980000   20.790000
  Q     16.440000   15.280000   20.380000
  Q      6.260000    1.760000    8.380000
  Q      5.050000    0.980000    9.040000
  Q      5.540000    1.660000    8.870000
  Q     11.010000   11.700000    2.310000
  Q     12.320000   11.270000    2.950000
  Q     11.810000   11.810000    2.560000
  Q      8.300000    8.490000    1.050000
  Q      7.230000    8.200000   -0.120000
  Q      7.550000    8.230000    0.690000
  Q     20.250000   17.870000   14.600000
  Q     19.230000   16.970000   13.980000
  Q     19.620000   17.700000   14.050000
  Q     15.490000   12.250000    1.330000
  Q     15.540000   11.460000    2.720000
  Q     15.710000   11.600000    1.870000
  Q      7.650000    4.660000    4.560000
  Q      7.960000    4.770000    5.990000
  Q      8.060000    4.980000    5.210000
  Q      7.840000    6.880000    4.770000
  Q      8.470000    8.350000    5.080000
  Q      7.940000    7.750000    4.710000
  Q      5.840000    1.960000   13.280000
  Q      5.420000    1.950000   14.750000
  Q      5.720000    2.300000   14.060000
  Q     15.710000   12.130000    4.980000
  Q     16.250000   10.680000    5.140000
  Q     15.910000   11.360000    4.750000
  Q     10.530000   19.110000    9.960000
  Q      9.400000   18.280000    9.340000
  Q     10.150000   18.400000    9.760000
  Q      5.660000   11.530000   13.650000
  Q      4.290000   11.750000   14.430000
  Q      5.050000   11.960000   14.060000
  Q     13.510000    3.840000   19.970000
  Q     13.830000    5.300000   19.990000
  Q     14.010000    4.510000   20.000000
  Q     15.370000   12.480000   11.650000
  Q     16.640000   11.690000   11.030000
  Q     15.820000   11.950000   11.070000
  Q     14.130000   18.970000   18.990000
  Q     15.600000   19.450000   18.900000
  Q     14.780000   19.390000   18.660000
  Q     17.180000    9.690000   19.850000
  Q     17.880000   10.450000   20.860000
  Q     17.630000   10.340000   20.090000
  Q     12.920000   16.160000   10.840000
  Q     11.580000   15.460000   10.880000
  Q     12.230000   15.840000   11.250000
  Q      3.960000    8.400000   18.870000
  Q      3.750000    8.510000   17.470000
  Q      3.620000    8.140000   18.170000
  Q      3.300000   13.770000    5.900000
  Q      2.410000   14.850000    5.380000
  Q      2.800000   14.440000    5.980000
  Q     14.940000    8.190000   16.180000
  Q     15.870000    6.910000   15.840000
  Q     15.460000    7.500000   16.340000
  Q      5.960000   11.460000    2.120000
  Q      6.900000   12.630000    1.510000
  Q      6.650000   11.960000    1.990000
  Q     10.590000   14.810000   17.820000
  Q      9.370000   13.940000   17.850000
  Q      9.770000   14.670000   17.860000
  Q     17.930000   18.150000   16.630000
  Q     18.940000   17.010000   16.910000
  Q     18.230000   17.430000   17.020000
  Q     19.530000   11.040000    6.160000
  Q     18.880000   12.390000    6.050000
  Q     18.880000   11.560000    6.040000
  Q     15.210000   16.780000   11.970000
  Q     15.370000   17.710000   13.170000
  Q     15.560000   17.060000   12.670000
  Q     15.320000    3.360000   15.930000
  Q     14.210000    3.140000   14.810000
  Q     14.950000    2.970000   15.240000
  Q     16.480000    7.940000   11.680000
  Q     17.220000    6.620000   11.320000
  Q     16.610000    7.080000   11.680000
  Q      9.470000    2.220000    8.810000
  Q      8.970000    1.360000    7.720000
  Q      8.890000    1.940000    8.290000
  Q      4.540000   12.080000    6.160000
  Q      4.380000   12.010000    4.600000
  Q      4.610000   12.390000    5.360000
  Q     11.570000    6.310000    4.930000
  Q     10.600000    5.120000    4.730000
  Q     11.330000    5.510000    4.860000
  Q      8.440000    3.490000    2.200000
  Q      9.670000    2.660000    2.500000
  Q      9.230000    3.270000    2.120000
  Q     12.340000   17.590000   20.150000
  Q     13.080000   16.700000   19.050000
  Q     12.880000   17.000000   19.870000
  Q     13.520000   21.010000   12.630000
  Q     13.060000   22.350000   12.170000
  Q     12.950000   21.540000   12.380000
  Q     20.440000   10.290000   10.640000
  Q     20.910000    9.850000    9.370000
  Q     20.850000    9.790000   10.180000
  Q      6.580000   15.970000   11.800000
  Q      6.010000   15.600000   10.290000
  Q      6.560000   15.920000   10.900000
  Q     13.330000   13.600000    5.350000
  Q     12.100000   13.160000    4.520000
  Q     12.750000   13.660000    4.700000
  Q      7.290000    2.220000   11.550000
  Q      6.350000    1.530000   10.580000
  Q      6.740000    1.640000   11.320000
  Q     10.030000   20.930000   13.260000
  Q     11.480000   21.100000   13.370000
  Q     10.720000   20.970000   13.700000
  Q     14.730000   19.140000    7.460000
  Q     13.300000   19.170000    8.180000
  Q     14.080000   18.870000    8.000000
  Q      9.950000    4.420000   18.490000
  Q     11.390000    4.040000   18.440000
  Q     10.660000    4.230000   18.100000
  Q      6.360000    8.580000    3.270000
  Q      6.210000    9.050000    1.820000
  Q      5.950000    8.940000    2.620000
  Q     15.940000    8.010000   18.510000
  Q     17.130000    7.670000   19.470000
  Q     16.400000    8.040000   19.230000
  Q     13.260000    2.860000   11.920000
  Q     13.880000    2.200000   10.640000
  Q     13.340000    2.280000   11.310000
  Q      6.440000    4.130000    7.800000
  Q      7.860000    3.570000    7.770000
  Q      7.260000    4.170000    7.800000
  Q     14.050000    2.920000    5.920000
  Q     15.400000    2.490000    6.620000
  Q     14.650000    2.920000    6.550000
  Q      4.950000   19.200000    8.320000
  Q      6.260000   18.590000    7.960000
  Q      5.500000   18.880000    7.750000
  Q     14.250000   16.950000    9.160000
  Q     14.510000   15.540000    9.570000
  Q     14.320000   16.350000    9.720000
  Q     18.070000   14.020000    3.280000
  Q     17.380000   12.870000    3.500000
  Q     17.410000   13.650000    3.560000
  Q     19.300000    5.470000   10.330000
  Q     19.400000    6.730000   11.250000
  Q     19.060000    6.210000   10.700000
  Q     16.700000   16.280000   17.180000
  Q     16.090000   15.610000   18.460000
  Q     16.140000   15.770000   17.620000
  Q     11.740000   16.220000    2.780000
  Q     11.960000   14.700000    2.340000
  Q     11.530000   15.420000    2.510000
  Q     15.500000   20.230000   12.860000
  Q     14.710000   19.860000   14.180000
  Q     15.040000   19.770000   13.400000
  Q      7.610000   19.050000   14.160000
  Q      8.400000   18.170000   13.060000
  Q      7.780000   18.690000   13.400000
  Q      5.270000   13.730000   17.220000
  Q      5.370000   12.360000   16.330000
  Q      5.400000   12.870000   17.060000
  Q     17.230000    5.330000    3.200000
  Q     16.320000    6.320000    2.400000
  Q     16.600000    5.900000    3.090000
  Q     17.280000   12.320000   15.630000
  Q     17.390000   10.830000   16.020000
  Q     17.110000   11.490000   15.600000
  Q      5.830000   18.910000   11.970000
  Q      4.570000   18.860000   11.170000
  Q      5.130000   19.220000   11.680000
  Q      5.010000    7.780000   11.190000
  Q      4.520000    8.810000   10.240000
  Q      4.440000    8.290000   10.880000
  Q     18.960000   11.990000   11.480000
  Q     18.360000   10.630000   11.920000
  Q     18.610000   11.260000   11.350000
  Q     15.430000   13.040000    6.790000
  Q     15.510000   14.560000    6.290000
  Q     15.300000   13.710000    6.280000
  Q     17.390000    8.350000   16.870000
  Q     18.880000    8.800000   17.080000
  Q     18.090000    8.830000   16.750000
  Q      7.690000   21.770000   11.640000
  Q      7.900000   20.300000   12.100000
  Q      8.130000   21.050000   11.780000
  Q      5.830000    3.210000   18.870000
  Q      5.720000    4.440000   17.890000
  Q      5.430000    3.860000   18.470000
  Q     12.090000    9.970000   19.920000
  Q     13.130000   10.410000   20.960000
  Q     12.640000   10.480000   20.270000
  Q     17.260000   11.750000    7.430000
  Q     16.230000   11.180000    8.480000
  Q     16.540000   11.670000    7.840000
  Q     17.790000   14.400000    6.780000
  Q     17.850000   14.220000    5.230000
  Q     18.170000   14.270000    6.010000
  Q     19.260000    7.650000    4.800000
  Q     18.100000    8.500000    4.550000
  Q     18.860000    8.220000    4.360000
  Q      4.330000    9.320000   20.920000
  Q      5.650000    9.400000   20.150000
  Q      4.940000    9.030000   20.420000
  Q      8.900000   14.470000    4.750000
  Q      9.720000   14.800000    3.520000
  Q      9.060000   14.460000    3.930000
  Q     11.310000   21.210000   11.160000
  Q      9.870000   20.920000   10.810000
  Q     10.720000   20.950000   10.650000
  Q     14.610000    6.790000   13.100000
  Q     14.280000    7.850000   14.050000
  Q     14.190000    7.120000   13.730000
  Q      3.860000   10.540000   16.430000
  Q      5.010000    9.690000   15.830000
  Q      4.570000   10.030000   16.460000
  Q      2.170000    9.240000    9.390000
  Q      2.300000    8.490000    7.990000
  Q      2.420000    9.150000    8.580000
  Q      7.250000   12.340000   18.030000
  Q      8.020000   12.850000   19.250000
  Q      7.910000   12.490000   18.500000
  Q     18.170000   14.490000   15.100000
  Q     17.590000   14.110000   16.630000
  Q     18.090000   14.070000   15.900000
  Q      5.810000    5.040000   15.580000
  Q      7.220000    4.640000   16.080000
  Q      6.450000    5.040000   16.130000
  Q      7.040000    6.130000    1.040000
  Q      5.830000    5.500000    0.290000
  Q      6.470000    5.560000    0.880000
  Q     14.860000    0.430000    8.580000
  Q     14.070000    1.720000    8.000000
  Q     14.200000    0.990000    8.450000
  Q      2.330000   12.070000   11.860000
  Q      0.920000   11.530000   12.170000
  Q      1.470000   12.100000   11.860000
  Q     -0.570000   10.740000   14.070000
  Q     -0.010000    9.450000   13.180000
  Q      0.040000   10.190000   13.670000
  Q     15.110000   16.990000    7.020000
  Q     16.680000   16.590000    6.750000
  Q     15.870000   16.500000    7.010000
  Q     12.350000   14.030000   19.090000
  Q     13.320000   13.460000   18.040000
  Q     12.770000   14.010000   18.370000
  Q      4.430000    3.380000    8.290000
  Q      4.240000    4.900000    8.280000
  Q      4.460000    4.160000    7.950000
  Q      7.760000   17.080000   15.830000
  Q      6.780000   18.090000   16.640000
  Q      7.070000   17.620000   15.980000
  Q     17.280000    7.710000   14.560000
  Q     17.300000    6.630000   13.610000
  Q     17.410000    6.920000   14.370000
  Q     14.670000    7.470000    6.990000
  Q     14.270000    8.700000    7.800000
  Q     14.380000    8.260000    7.100000
  Q      1.730000    7.440000    5.630000
  Q      3.200000    7.340000    6.180000
  Q      2.340000    7.270000    6.210000
  Q     17.970000    9.720000    9.610000
  Q     17.740000    8.390000    8.700000
  Q     17.610000    9.200000    9.000000
  Q      3.310000    6.880000   12.120000
  Q      3.570000    5.880000   13.260000
  Q      3.100000    6.390000   12.790000
  Q      9.920000   14.200000   21.130000
  Q      9.490000   12.790000   21.410000
  Q      9.350000   13.570000   21.170000
  Q     14.460000   12.900000    9.780000
  Q     13.670000   13.950000   10.550000
  Q     13.980000   13.570000    9.860000
  Q     10.240000    1.130000   14.760000
  Q      9.630000    2.580000   15.030000
  Q     10.250000    1.990000   14.830000
  Q     16.770000    4.220000   17.970000
  Q     15.340000    4.630000   18.450000
  Q     15.930000    4.230000   17.970000
  Q      3.000000   18.160000   10.080000
  Q      4.080000   17.180000    9.390000
  Q      3.640000   17.570000   10.020000
  Q     16.220000    6.160000    5.100000
  Q     15.430000    5.120000    5.990000
  Q     15.920000    5.810000    5.830000
  Q      9.520000   18.030000   20.500000
  Q      9.380000   19.040000   19.320000
  Q      9.120000   18.510000   19.920000
  Q     10.660000    6.640000    2.020000
  Q      9.690000    5.520000    1.620000
  Q     10.190000    6.180000    1.500000
  Q     12.110000   17.860000   16.840000
  Q     10.700000   17.840000   16.240000
  Q     11.380000   18.190000   16.650000
  Q      5.800000   13.690000    4.540000
  Q      7.000000   14.260000    3.870000
  Q      6.260000   14.330000    4.290000
  Q     17.280000    9.170000    6.730000
  Q     16.010000    8.790000    6.070000
  Q     16.810000    9.020000    6.060000
  Q     13.440000    2.940000    3.340000
  Q     12.550000    4.000000    4.220000
  Q     12.910000    3.210000    3.970000
  Q      2.610000   11.160000    3.540000
  Q      3.470000   10.280000    2.740000
  Q      3.340000   10.960000    3.190000
  Q     16.770000   15.280000    8.470000
  Q     16.750000   13.800000    8.740000
  Q     17.120000   14.540000    8.630000
  Q      3.520000    6.900000    9.920000
  Q      2.450000    5.810000    9.530000
  Q      3.140000    6.280000    9.440000
  Q     19.910000   14.140000   10.690000
  Q     18.530000   14.430000   10.180000
  Q     19.090000   14.260000   10.760000
  Q     16.270000   11.850000   20.400000
  Q     15.100000   12.770000   19.880000
  Q     15.730000   12.500000   20.400000
  Q      4.070000   12.030000    8.110000
  Q      3.240000   10.720000    7.910000
  Q      3.490000   11.520000    7.710000
  Q     14.640000    8.510000    0.630000
  Q     14.920000   10.020000    1.170000
  Q     14.470000    9.330000    0.820000
  Q     13.620000    6.610000   16.640000
  Q     12.060000    6.650000   16.290000
  Q     12.780000    6.770000   16.750000
  Q     11.810000    3.090000   14.280000
  Q     12.290000    4.430000   13.590000
  Q     12.360000    3.570000   13.840000
  Q     18.300000    5.320000   15.130000
  Q     19.370000    4.330000   14.770000
  Q     18.720000    4.610000   15.190000
  Q      4.960000    4.530000    4.470000
  Q      4.560000    4.470000    6.030000
  Q      4.540000    4.740000    5.190000
  Q      4.290000   13.050000   12.290000
  Q      3.190000   13.830000   11.490000
  Q      3.850000   13.270000   11.610000
  Q      2.260000   12.060000   15.710000
  Q      1.940000   10.700000   15.360000
  Q      2.480000   11.280000   15.470000
  Q     15.910000    3.310000    9.460000
  Q     15.010000    4.150000   10.400000
  Q     15.470000    3.500000   10.150000
  Q      8.930000   21.220000   16.530000
  Q      9.350000   20.990000   14.960000
  Q      8.900000   21.310000   15.640000
  Q     15.760000    2.700000   12.200000
  Q     16.110000    2.840000   13.700000
  Q     16.180000    2.550000   12.920000
  Q     15.590000   14.540000    3.400000
  Q     14.100000   14.720000    3.590000
  Q     14.840000   14.950000    3.330000
  Q      6.290000    3.110000    2.900000
  Q      6.240000    4.650000    2.520000
  Q      6.320000    3.970000    3.040000
  Q     12.470000    8.820000    3.730000
  Q     12.890000    8.730000    2.300000
  Q     12.320000    8.740000    2.900000
  Q      4.850000    8.290000   14.250000
  Q      6.190000    8.710000   13.520000
  Q      5.520000    8.790000   14.020000
  Q      7.530000   16.810000    8.010000
  Q      7.380000   16.950000    9.460000
  Q      7.570000   17.230000    8.700000
  Q     10.290000    7.350000   21.440000
  Q     11.520000    7.180000   20.610000
  Q     10.720000    7.360000   20.750000
  Q      6.220000   19.580000   18.230000
  Q      7.390000   18.620000   18.800000
  Q      6.690000   18.840000   18.340000
  Q     20.850000    8.180000   11.380000
  Q     21.430000    7.000000   12.270000
  Q     20.970000    7.700000   12.080000
  Q     12.960000   12.860000    1.640000
  Q     14.130000   14.040000    1.590000
  Q     13.540000   13.440000    1.290000

----------------------------
CARTESIAN COORDINATES (A.U.)
----------------------------
  NO LB      ZA    FRAG     MASS         X           Y           Z
   0 C     6.0000    0    12.011   22.487741   21.032652   24.320775
   1 H     1.0000    0     1.008   24.131803   19.898816   23.697166
   2 H     1.0000    0     1.008   21.901926   20.106686   26.059323
   3 C     6.0000    0    12.011   20.541323   21.164933   22.204282
   4 H     1.0000    0     1.008   19.010645   22.260974   22.752303
   5 H     1.0000    0     1.008   21.316111   22.242077   20.635809
   6 C     6.0000    0    12.011   19.766535   18.557111   21.335008
   7 H     1.0000    0     1.008   18.405933   17.612248   22.714508
   8 H     1.0000    0     1.008   21.448392   17.479967   21.202727
   9 C     6.0000    0    12.011   18.651597   18.689391   18.727186
  10 H     1.0000    0     1.008   17.196508   20.087789   18.670494
  11 H     1.0000    0     1.008   17.952398   16.856357   18.349241
  12 O     8.0000    0    15.999   20.522426   19.369693   16.856357
  13 H     1.0000    0     1.008   19.728741   18.746083   15.268987
  14 O     8.0000    0    15.999   23.130248   23.659371   24.849899
  15 H     1.0000    0     1.008   21.788542   24.471953   25.756967
  16 O     8.0000    0    15.999   18.916159   26.248296   25.511303
  17 H     1.0000    0     1.008   17.479967   26.437269   26.777419
  18 H     1.0000    0     1.008   19.955508   27.778974   25.738070
  19 O     8.0000    0    15.999   17.234302   16.346131   28.572659
  20 H     1.0000    0     1.008   17.933501   17.876809   29.252961
  21 H     1.0000    0     1.008   18.387035   15.061117   29.177372
  22 O     8.0000    0    15.999   18.462624   12.339912   20.371248
  23 H     1.0000    0     1.008   17.612248   12.207631   18.727186
  24 H     1.0000    0     1.008   17.536659   11.829686   21.864131
  25 O     8.0000    0    15.999   23.130248   11.867480   18.349241
  26 H     1.0000    0     1.008   21.599570   12.566679   19.105131
  27 H     1.0000    0     1.008   22.657816   11.017103   16.742974
  28 O     8.0000    0    15.999   15.117809   24.018419   15.873700
  29 H     1.0000    0     1.008   16.119364   24.585337   17.177611
  30 H     1.0000    0     1.008   15.004426   25.549097   14.872145
  31 O     8.0000    0    15.999   18.462624   32.881235   23.583782
  32 H     1.0000    0     1.008   18.689391   33.164694   21.769645
  33 H     1.0000    0     1.008   20.144481   32.295420   24.264084
  34 O     8.0000    0    15.999   23.300323    8.522665   14.210741
  35 H     1.0000    0     1.008   24.831001    7.728980   13.606028
  36 H     1.0000    0     1.008   22.620022    9.240761   12.698960
  37 O     8.0000    0    15.999   22.620022   30.632461   27.041981
  38 H     1.0000    0     1.008   23.942830   30.670255   28.194714
  39 H     1.0000    0     1.008   23.073556   30.122235   25.341227
  40 O     8.0000    0    15.999   27.004186    9.977754   21.410597
  41 H     1.0000    0     1.008   28.138022   11.319460   21.523981
  42 H     1.0000    0     1.008   25.511303   10.431288   20.446837
  43 O     8.0000    0    15.999   18.859467   21.108241   30.386796
  44 H     1.0000    0     1.008   20.031097   22.449946   30.745844
  45 H     1.0000    0     1.008   17.895706   20.862577   31.936372
  46 O     8.0000    0    15.999   17.933501   31.180481   29.555317
  47 H     1.0000    0     1.008   17.593350   29.763187   30.708050
  48 H     1.0000    0     1.008   19.256309   30.575769   28.591556
  49 O     8.0000    0    15.999   14.607583   13.473747   33.448153
  50 H     1.0000    0     1.008   15.571343   14.361919   32.163139
  51 H     1.0000    0     1.008   13.492645   12.472192   32.427700
  52 O     8.0000    0    15.999   15.817008   13.908384   15.476857
  53 H     1.0000    0     1.008   15.193398   12.302117   14.853247
  54 H     1.0000    0     1.008   14.361919   14.796556   16.213850
  55 O     8.0000    0    15.999   23.281426   18.009090   30.330104
  56 H     1.0000    0     1.008   23.527090   16.478412   31.369454
  57 H     1.0000    0     1.008   21.712953   18.519316   30.802536
  58 O     8.0000    0    15.999   22.260974   15.174501   11.149384
  59 H     1.0000    0     1.008   20.768090   16.138261   11.584021
  60 H     1.0000    0     1.008   23.394810   15.325679   12.528884
  61 O     8.0000    0    15.999   27.495515   25.908145   23.734960
  62 H     1.0000    0     1.008   25.794762   25.738070   24.566440
  63 H     1.0000    0     1.008   28.005741   27.514413   24.301878
  64 O     8.0000    0    15.999   17.763426   17.517761   12.509987
  65 H     1.0000    0     1.008   16.516206   18.840570   12.642268
  66 H     1.0000    0     1.008   17.045330   16.081569   13.587131
  67 O     8.0000    0    15.999   10.355699   22.525536   17.479967
  68 H     1.0000    0     1.008   11.924172   23.224734   16.894152
  69 H     1.0000    0     1.008    9.769884   23.772755   18.746083
  70 O     8.0000    0    15.999   14.815453   26.607344   28.931707
  71 H     1.0000    0     1.008   13.587131   27.778974   28.345892
  72 H     1.0000    0     1.008   13.851693   25.719173   30.065543
  73 O     8.0000    0    15.999   28.818324   17.971296   22.790097
  74 H     1.0000    0     1.008   28.893913   18.349241   24.547542
  75 H     1.0000    0     1.008   29.007296   19.558665   21.807440
  76 O     8.0000    0    15.999   21.675159   11.357254   24.868796
  77 H     1.0000    0     1.008   21.164933   11.565124   23.054659
  78 H     1.0000    0     1.008   23.243631   12.283220   25.171152
  79 O     8.0000    0    15.999   19.672049   28.704940   17.158713
  80 H     1.0000    0     1.008   19.804330   30.481283   17.612248
  81 H     1.0000    0     1.008   18.349241   28.043536   18.179165
  82 O     8.0000    0    15.999   22.563330   23.545988   14.985528
  83 H     1.0000    0     1.008   23.640474   24.434159   16.138261
  84 H     1.0000    0     1.008   22.204282   21.977515   15.873700
  85 O     8.0000    0    15.999   12.037555   12.925727   21.788542
  86 H     1.0000    0     1.008   12.547782   11.187179   21.486186
  87 H     1.0000    0     1.008   13.473747   13.738309   22.733405
  88 O     8.0000    0    15.999   13.530439   20.975960   11.999761
  89 H     1.0000    0     1.008   12.812343   21.316111   10.431288
  90 H     1.0000    0     1.008   14.758761   22.317666   12.245425
  91 O     8.0000    0    15.999   25.624686   18.027987   17.744528
  92 H     1.0000    0     1.008   23.923933   17.744528   18.216960
  93 H     1.0000    0     1.008   26.626241   17.423275   19.124028
  94 O     8.0000    0    15.999   28.138022   18.538213   28.081330
  95 H     1.0000    0     1.008   29.328550   19.709844   28.799426
  96 H     1.0000    0     1.008   26.493960   19.142926   28.497070
  97 O     8.0000    0    15.999   20.805885    5.725870   18.330343
  98 H     1.0000    0     1.008   22.034207    4.686521   19.124028
  99 H     1.0000    0     1.008   21.429494    6.916398   17.026432
 100 O     8.0000    0    15.999   16.591795   26.758522   20.786987
 101 H     1.0000    0     1.008   15.117809   27.911255   21.127138
 102 H     1.0000    0     1.008   17.290994   26.116015   22.431049
 103 O     8.0000    0    15.999   15.080015   16.270542   24.207392
 104 H     1.0000    0     1.008   14.494199   17.839015   23.564885
 105 H     1.0000    0     1.008   15.571343   16.346131   25.964837
 106 O     8.0000    0    15.999   14.626480   29.158474   12.585576
 107 H     1.0000    0     1.008   16.535104   29.385241   12.188734
 108 H     1.0000    0     1.008   13.511542   28.686043   11.243870
 109 O     8.0000    0    15.999   19.464179   12.018658   29.744289
 110 H     1.0000    0     1.008   19.350796   10.469083   30.632461
 111 H     1.0000    0     1.008   20.201172   11.848583   28.062433
 112 Q     0.6645    0     0.000   21.051549   27.892358   10.639158
 113 Q     0.6645    0     0.000   20.427940   28.572659   13.435953
 114 Q    -1.3290    0     0.000   20.314556   28.723837   11.772994
 115 Q     0.6645    0     0.000   35.470160   20.654707   34.808755
 116 Q     0.6645    0     0.000   37.567756   22.657816   34.109557
 117 Q    -1.3290    0     0.000   36.925249   21.164933   34.260735
 118 Q     0.6645    0     0.000   11.017103    2.985767   10.695850
 119 Q     0.6645    0     0.000   12.698960    1.020452   11.470638
 120 Q    -1.3290    0     0.000   12.415501    2.456644   11.017103
 121 Q     0.6645    0     0.000   15.325679    7.294343   20.994857
 122 Q     0.6645    0     0.000   13.776104    8.163617   18.594905
 123 Q    -1.3290    0     0.000   14.229638    8.182514   20.144481
 124 Q     0.6645    0     0.000   11.678508   18.802775   33.712714
 125 Q     0.6645    0     0.000   14.040665   17.309891   34.393016
 126 Q    -1.3290    0     0.000   13.001316   18.462624   34.581988
 127 Q     0.6645    0     0.000   34.581988   11.886377   16.402823
 128 Q     0.6645    0     0.000   33.221385   11.924172   13.492645
 129 Q    -1.3290    0     0.000   34.109557   12.377706   14.834350
 130 Q     0.6645    0     0.000   21.391700    3.930630    7.672288
 131 Q     0.6645    0     0.000   21.108241    1.511781    6.160507
 132 Q    -1.3290    0     0.000   20.635809    2.740103    7.067576
 133 Q     0.6645    0     0.000   11.546227   14.683172   10.828131
 134 Q     0.6645    0     0.000    9.599809   12.509987   10.620261
 135 Q    -1.3290    0     0.000   10.166727   13.927282   11.130487
 136 Q     0.6645    0     0.000   17.442172   18.727186    3.987322
 137 Q     0.6645    0     0.000   19.804330   17.120919    3.609377
 138 Q    -1.3290    0     0.000   18.500419   17.933501    3.136945
 139 Q     0.6645    0     0.000   35.148906   28.629351   23.678268
 140 Q     0.6645    0     0.000   33.183591   30.254515   24.415262
 141 Q    -1.3290    0     0.000   34.393016   29.347447   24.736515
 142 Q     0.6645    0     0.000    7.313240   35.167803   29.215166
 143 Q     0.6645    0     0.000    9.864370   34.241838   28.364789
 144 Q    -1.3290    0     0.000    8.314795   34.468605   28.213611
 145 Q     0.6645    0     0.000   24.585337   18.443727   10.450186
 146 Q     0.6645    0     0.000   26.569549   20.503529    9.599809
 147 Q    -1.3290    0     0.000   25.152255   19.690946    9.580911
 148 Q     0.6645    0     0.000   37.851214   20.541323   30.349002
 149 Q     0.6645    0     0.000   37.000838   22.752303   28.704940
 150 Q    -1.3290    0     0.000   37.756728   21.316111   28.969502
 151 Q     0.6645    0     0.000    8.182514   14.966631    4.403062
 152 Q     0.6645    0     0.000    6.009329   14.947734    2.759000
 153 Q    -1.3290    0     0.000    6.897500   14.324124    3.836144
 154 Q     0.6645    0     0.000   10.185624   30.216721   14.456405
 155 Q     0.6645    0     0.000    7.823466   28.799426   15.136706
 156 Q    -1.3290    0     0.000    9.051788   29.687598   15.457960
 157 Q     0.6645    0     0.000    5.706973   13.851693   27.382132
 158 Q     0.6645    0     0.000    6.651836   12.717857   29.876570
 159 Q    -1.3290    0     0.000    6.141610   13.870590   28.931707
 160 Q     0.6645    0     0.000   17.498864   18.972850   36.207153
 161 Q     0.6645    0     0.000   18.972850   16.402823   36.282742
 162 Q    -1.3290    0     0.000   18.708289   17.952398   35.885899
 163 Q     0.6645    0     0.000    9.713192   30.367899   30.783639
 164 Q     0.6645    0     0.000   10.865925   30.254515   33.334769
 165 Q    -1.3290    0     0.000    9.826576   29.838776   32.238728
 166 Q     0.6645    0     0.000   21.486186   31.860783   10.185624
 167 Q     0.6645    0     0.000   20.163378   34.052865    9.278555
 168 Q    -1.3290    0     0.000   21.372803   33.051310    9.278555
 169 Q     0.6645    0     0.000   13.303672   32.881235    5.083363
 170 Q     0.6645    0     0.000   12.869035   30.632461    7.010884
 171 Q    -1.3290    0     0.000   13.076905   32.200933    6.557350
 172 Q     0.6645    0     0.000    2.248774   29.668700   20.919268
 173 Q     0.6645    0     0.000    5.026672   30.216721   20.786987
 174 Q    -1.3290    0     0.000    3.760555   29.271858   20.919268
 175 Q     0.6645    0     0.000   17.839015   11.187179   37.737831
 176 Q     0.6645    0     0.000   15.609138   10.865925   35.980386
 177 Q    -1.3290    0     0.000   16.686282   10.355699   36.963043
 178 Q     0.6645    0     0.000   10.166727   18.859467   23.054659
 179 Q     0.6645    0     0.000   11.451740   20.238967   20.824782
 180 Q    -1.3290    0     0.000   11.357254   19.690946   22.355460
 181 Q     0.6645    0     0.000   12.887932   31.993063   26.286091
 182 Q     0.6645    0     0.000   10.299007   30.292310   25.586892
 183 Q    -1.3290    0     0.000   11.905275   30.651358   25.832556
 184 Q     0.6645    0     0.000   11.432843   18.783878   15.684727
 185 Q     0.6645    0     0.000   10.336802   16.100467   14.966631
 186 Q    -1.3290    0     0.000   10.998206   17.196508   15.892597
 187 Q     0.6645    0     0.000   35.621338   18.481522   26.361680
 188 Q     0.6645    0     0.000   36.263845   16.043775   24.660926
 189 Q    -1.3290    0     0.000   35.451262   17.404378   25.133358
 190 Q     0.6645    0     0.000   26.456166   37.548858   31.671810
 191 Q     0.6645    0     0.000   24.264084   37.473269   29.630906
 192 Q    -1.3290    0     0.000   25.794762   37.756728   30.178926
 193 Q     0.6645    0     0.000   19.672049   37.057529   33.221385
 194 Q     0.6645    0     0.000   19.861022   39.740941   34.355221
 195 Q    -1.3290    0     0.000   19.142926   38.361441   33.977276
 196 Q     0.6645    0     0.000   18.254754   22.336563    7.369932
 197 Q     0.6645    0     0.000   15.722521   22.034207    6.198302
 198 Q    -1.3290    0     0.000   17.007535   21.505083    6.916398
 199 Q     0.6645    0     0.000    4.875493   29.782084   24.585337
 200 Q     0.6645    0     0.000    6.538452   31.917474   26.191604
 201 Q    -1.3290    0     0.000    6.066021   30.405693   25.549097
 202 Q     0.6645    0     0.000   25.001077   29.687598   33.164694
 203 Q     0.6645    0     0.000   26.985289   31.671810   32.314317
 204 Q    -1.3290    0     0.000   25.530200   31.123789   32.711159
 205 Q     0.6645    0     0.000   21.316111   23.413707   12.018658
 206 Q     0.6645    0     0.000   20.843679   21.353905   10.280110
 207 Q    -1.3290    0     0.000   20.598015   22.808994   10.790336
 208 Q     0.6645    0     0.000    6.236096    8.258103   27.760077
 209 Q     0.6645    0     0.000    8.787227    7.672288   26.531755
 210 Q    -1.3290    0     0.000    7.747877    8.579357   27.382132
 211 Q     0.6645    0     0.000   26.701830   14.399713   38.153571
 212 Q     0.6645    0     0.000   25.001077   13.681617   35.696927
 213 Q    -1.3290    0     0.000   25.624686   13.606028   37.246502
 214 Q     0.6645    0     0.000   15.080015   29.120680   36.037077
 215 Q     0.6645    0     0.000   12.887932   28.648248   37.964598
 216 Q    -1.3290    0     0.000   13.549336   28.969502   36.509509
 217 Q     0.6645    0     0.000    0.302356   24.131803   13.379261
 218 Q     0.6645    0     0.000    2.910178   22.601125   14.135151
 219 Q    -1.3290    0     0.000    1.341706   22.865686   13.549336
 220 Q     0.6645    0     0.000   23.394810   29.252961   39.079536
 221 Q     0.6645    0     0.000   23.375912   27.155365   41.007057
 222 Q    -1.3290    0     0.000   22.714508   27.986844   39.873221
 223 Q     0.6645    0     0.000   25.719173   21.429494   35.489057
 224 Q     0.6645    0     0.000   26.512858   21.750748   32.805646
 225 Q    -1.3290    0     0.000   26.607344   22.034207   34.298529
 226 Q     0.6645    0     0.000   18.027987    4.554240   24.131803
 227 Q     0.6645    0     0.000   18.613802    5.347925   21.221624
 228 Q    -1.3290    0     0.000   17.763426    5.196747   22.601125
 229 Q     0.6645    0     0.000   21.051549   21.618467   40.666906
[...]
 323   Q   :    0.074340853    0.264683071    0.019082285
 324   Q   :   -0.251820795   -0.133047111   -0.043928439
 325   Q   :    0.171309449   -0.127135037    0.014294442
 326   Q   :   -0.299815327    0.068799086    0.043203685
 327   Q   :    0.132257772   -0.210783329    0.134944407
 328   Q   :    0.166704447    0.139426894   -0.185022533
 329   Q   :   -0.190802728    0.206292356    0.085874674
 330   Q   :    0.041068783   -0.079951523   -0.214350413
 331   Q   :    0.150388086   -0.115228303    0.136453001
 332   Q   :    0.225344098   -0.178005466    0.091772788
 333   Q   :    0.053897373    0.275846008   -0.069130925
 334   Q   :   -0.262075109   -0.089261285   -0.028518840
 335   Q   :   -0.170657980    0.215071949    0.168873274
 336   Q   :    0.009359173    0.040428285   -0.313638137
 337   Q   :    0.169561915   -0.246416372    0.136744820
 338   Q   :    0.005072599    0.000687712    0.229726082
 339   Q   :   -0.159861517   -0.100681544   -0.174070888
 340   Q   :    0.145111732    0.100096117   -0.059502928
 341   Q   :    0.163465512   -0.027491531    0.199517769
 342   Q   :   -0.218310833   -0.169863953   -0.050464346
 343   Q   :    0.048952703    0.195031069   -0.152221900
 344   Q   :    0.189594869    0.217364289    0.073211216
 345   Q   :   -0.125200744   -0.032907291   -0.249265770
 346   Q   :   -0.059260995   -0.189426695    0.174960010
 347   Q   :   -0.250265061   -0.012871480   -0.173717812
 348   Q   :    0.241380246    0.041209646   -0.124458344
 349   Q   :    0.011418559   -0.030533597    0.304774156
 350   Q   :    0.189433939    0.084860303   -0.167402346
 351   Q   :   -0.256680194    0.110405939    0.050098145
 352   Q   :    0.064574312   -0.186692662    0.117322913
 353   Q   :   -0.231794639    0.057089339    0.144061643
 354   Q   :    0.268359807   -0.069065048    0.150464934
 355   Q   :   -0.023554095    0.000260204   -0.295857025
 356   Q   :    0.137281092   -0.122826661    0.206019096
 357   Q   :    0.077724595    0.042007213   -0.262048520
 358   Q   :   -0.217201093    0.093404424    0.062681553
 359   Q   :   -0.137226712   -0.011183684   -0.235155458
 360   Q   :    0.249681885   -0.122552723    0.070612602
 361   Q   :   -0.114572332    0.128798891    0.163490410
 362   Q   :   -0.017493186    0.208735086    0.189588473
 363   Q   :    0.165909826   -0.013893506   -0.212695373
 364   Q   :   -0.142158203   -0.198767275    0.026396167
 365   Q   :   -0.289082501   -0.032022898    0.001811989
 366   Q   :    0.181534640   -0.191813974   -0.015595067
 367   Q   :    0.106857873    0.227751693    0.010091504
 368   Q   :   -0.174335126   -0.002979216   -0.189176215
 369   Q   :    0.235448081   -0.142928983    0.012679767
 370   Q   :   -0.049070022    0.146180063    0.180299892
 371   Q   :   -0.175799450    0.104597426    0.210758540
 372   Q   :    0.252940811   -0.090694972    0.091386696
 373   Q   :   -0.084167277   -0.007848487   -0.308237114
 374   Q   :   -0.023114760    0.200107971   -0.215400193
 375   Q   :    0.067197896   -0.257636723   -0.060808061
 376   Q   :   -0.028513467    0.063571131    0.262536146
 377   Q   :    0.268891442    0.124314034   -0.108873728
 378   Q   :    0.016523348   -0.322080417   -0.035744321
 379   Q   :   -0.280461058    0.192495387    0.134023313
 380   Q   :    0.086403306   -0.237553384   -0.121055415
 381   Q   :    0.125958383    0.177118008    0.195683952
 382   Q   :   -0.207687110    0.058506371   -0.077084460
 383   Q   :    0.158081008    0.148735086   -0.126733680
 384   Q   :   -0.015317670   -0.042101809    0.263585633
 385   Q   :   -0.156550629   -0.113852307   -0.145644602
 386   Q   :    0.077522099    0.247665690    0.081388115
 387   Q   :    0.150235201   -0.231617266   -0.049257613
 388   Q   :   -0.219724635   -0.013180261   -0.039335210
 389   Q   :    0.154431636    0.176392257   -0.181877778
 390   Q   :   -0.098858810    0.041581671    0.241971482
 391   Q   :   -0.049383639   -0.214850048   -0.070024951
 392   Q   :   -0.049374861    0.116027140    0.247943233
 393   Q   :    0.167353591   -0.146817138   -0.088830713
 394   Q   :   -0.125603866    0.035900550   -0.153168468
 395   Q   :   -0.034102584    0.242898673    0.032004109
 396   Q   :   -0.005089545   -0.135654449   -0.217673929
 397   Q   :    0.030933376   -0.115513240    0.189902705
 398   Q   :    0.212416321   -0.193087243    0.024970099
 399   Q   :   -0.084564101    0.130295144   -0.241694390
 400   Q   :   -0.127618069    0.062705917    0.205567384
 401   Q   :    0.058556031    0.267213826    0.022114978
 402   Q   :    0.097085477   -0.223904385    0.157321728
 403   Q   :   -0.154711307   -0.036597029   -0.180819431
 404   Q   :    0.264713433   -0.132422438    0.096320389
 405   Q   :   -0.188679905   -0.127790093   -0.179909789
 406   Q   :   -0.077699449    0.269877609    0.086103128
 407   Q   :    0.189427657   -0.172668501    0.100501956
 408   Q   :    0.033787017    0.178983373   -0.222628133
 409   Q   :   -0.231193402    0.013576305    0.127944590
 410   Q   :    0.136973756    0.268590485    0.063145684
 411   Q   :   -0.073784580   -0.159904688    0.157501410
 412   Q   :   -0.059333733   -0.097357287   -0.223867940
 413   Q   :    0.044714648   -0.209100590    0.167501968
 414   Q   :    0.073759360    0.248724680    0.011651618
 415   Q   :   -0.116695501   -0.030812502   -0.180741367
 416   Q   :   -0.219102766   -0.161574477    0.054313277
 417   Q   :    0.256559123   -0.022993343    0.120210799
 418   Q   :   -0.028693516    0.178000262   -0.169624388
 419   Q   :   -0.154224539    0.236875358   -0.043536293
 420   Q   :   -0.083591312   -0.238166549    0.101174762
 421   Q   :    0.223478320    0.010993716   -0.060662919
 422   Q   :    0.151507352   -0.220060105    0.122870446
 423   Q   :    0.107090532    0.166580148   -0.171137971
 424   Q   :   -0.260821467    0.051639559    0.057588206
 425   Q   :   -0.183241551   -0.195626694   -0.112596510
 426   Q   :    0.160559440   -0.035931719    0.239901202
 427   Q   :    0.023033148    0.222909680   -0.120936592
 428   Q   :    0.257771906    0.030977478   -0.130567936
 429   Q   :   -0.090666635   -0.152183928    0.207489781
 430   Q   :   -0.166789311    0.113529426   -0.067293422
 431   Q   :   -0.130924618    0.044299788    0.223700365
 432   Q   :   -0.111371525   -0.008019242   -0.248625738
 433   Q   :    0.247145775   -0.019017678    0.024415653
 434   Q   :    0.138009735   -0.223208481    0.181979399
 435   Q   :   -0.263546476    0.077437966    0.076039419
 436   Q   :    0.129655078    0.142070253   -0.266552368
 437   Q   :   -0.210707400    0.120468969    0.180307729
 438   Q   :    0.232518932    0.141727500   -0.073113067
 439   Q   :   -0.018328329   -0.261949506   -0.092266321
 440   Q   :   -0.056341735    0.011889250    0.296303332
 441   Q   :    0.214318026    0.113567410   -0.113964182
 442   Q   :   -0.156476403   -0.124795771   -0.177949366
 443   Q   :    0.202326964    0.101635213    0.201638286
 444   Q   :   -0.247036376   -0.009297809    0.058233627
 445   Q   :    0.051411889   -0.081593679   -0.265628422
 446   Q   :    0.157957266   -0.101891830   -0.231067608
 447   Q   :    0.046276204    0.297476947    0.118860573
 448   Q   :   -0.195413466   -0.195821960    0.113015389
 449   Q   :   -0.200356025    0.148734346   -0.012674710
 450   Q   :    0.145976331   -0.107988666   -0.217003888
 451   Q   :    0.056918389   -0.036636165    0.238239922
 452   Q   :   -0.090624893    0.017777375    0.278969714
 453   Q   :   -0.040335895   -0.184914623   -0.149218594
 454   Q   :    0.121499530    0.160787385   -0.119552881
 455   Q   :   -0.235203251   -0.046911580   -0.168971338
 456   Q   :    0.030406959    0.127218084    0.257933747
 457   Q   :    0.199146421   -0.087134531   -0.087233422
 458   Q   :    0.015814582    0.113438176   -0.207716074
 459   Q   :   -0.151442814    0.008033160    0.210877051
 460   Q   :    0.143821471   -0.116868367    0.003712450
 461   Q   :   -0.200226884   -0.008982666   -0.194938735
 462   Q   :    0.228833838   -0.113275943   -0.025439200
 463   Q   :   -0.028138708    0.130023732    0.207931588
 464   Q   :    0.204164743    0.207249104    0.052138005
 465   Q   :   -0.197819032   -0.009141126   -0.191337384
 466   Q   :   -0.007103359   -0.198459193    0.123796394
 467   Q   :    0.222431060   -0.167091910    0.026668156
 468   Q   :   -0.025253512    0.228294217   -0.145665861
 469   Q   :   -0.198570592   -0.069114837    0.123656249
 470   Q   :    0.271217531   -0.033548439    0.014305751
 471   Q   :   -0.175194145   -0.203032422    0.104604204
 472   Q   :   -0.101330065    0.233846315   -0.122929173
 473   Q   :   -0.177197378    0.144293997    0.104992497
 474   Q   :   -0.030201090   -0.219287176   -0.148950197
 475   Q   :    0.204851011    0.070983388    0.046627275
 476   Q   :   -0.198786201    0.142317425   -0.000750402
 477   Q   :    0.271453655    0.036136077   -0.085088117
 478   Q   :   -0.076279794   -0.168014575    0.083945391
 479   Q   :   -0.141269120   -0.000263060    0.251323200
 480   Q   :    0.179159970   -0.179672053   -0.103939521
 481   Q   :   -0.038988805    0.173069703   -0.150367475
 482   Q   :   -0.015514224   -0.248090106    0.118474826
 483   Q   :   -0.066874364    0.234648686    0.119470821
 484   Q   :    0.069030822    0.012154669   -0.232719429
 485   Q   :    0.190060116   -0.155553945   -0.034898410
 486   Q   :   -0.091296249    0.144529808    0.193791116
 487   Q   :   -0.099330755    0.003716374   -0.162149661
 488   Q   :   -0.062724076    0.288203946    0.056948847
 489   Q   :   -0.039183977   -0.092692686   -0.277205091
 490   Q   :    0.102542063   -0.191885539    0.219239812
 491   Q   :    0.095986922   -0.263504020   -0.023096039
 492   Q   :   -0.028751052    0.134481688    0.239325498
 493   Q   :   -0.063867019    0.127005517   -0.214623252
 494   Q   :   -0.196706281    0.064566548   -0.203379583
 495   Q   :    0.267072384    0.030129590   -0.021094129
 496   Q   :   -0.075404584   -0.101799139    0.217791122
 497   Q   :    0.117288416    0.149360031    0.188303282
 498   Q   :    0.049393050   -0.240970455   -0.080916701
 499   Q   :   -0.168537089    0.095463294   -0.100937264
 500   Q   :    0.080870843    0.150548369   -0.215638561
 501   Q   :    0.171823137   -0.164362161    0.151431561
 502   Q   :   -0.261513555    0.010546488    0.047435332
 503   Q   :    0.197180050    0.199511743   -0.006595673
 504   Q   :    0.065452074   -0.264819298    0.087412476
 505   Q   :   -0.270537776    0.076489859   -0.078448022
 506   Q   :    0.169402852   -0.238130805   -0.023766351
 507   Q   :   -0.098119691    0.124227555    0.231256450
 508   Q   :   -0.074603842    0.112695818   -0.212356925
 509   Q   :   -0.022751158   -0.281884709   -0.024026972
 510   Q   :   -0.186908391    0.164886223    0.046371781
 511   Q   :    0.213697294    0.107100559   -0.020954440
 512   Q   :    0.302018635    0.011364417    0.013826933
 513   Q   :   -0.174275831    0.145959717    0.152038283
 514   Q   :   -0.121827090   -0.151547510   -0.165435754
 515   Q   :   -0.200213753    0.191278479    0.012225408
 516   Q   :    0.126712694   -0.103072294   -0.197602914
 517   Q   :    0.073708660   -0.084407658    0.184914728
 518   Q   :    0.091385089    0.099915908   -0.221649002
 519   Q   :   -0.160552574   -0.226492042    0.040172540
 520   Q   :    0.065584419    0.125840056    0.183584383
 521   Q   :    0.157265686   -0.159212107    0.193599646
 522   Q   :    0.101294519    0.168272900   -0.196124216
 523   Q   :   -0.253570740   -0.019952544    0.015629160
 524   Q   :    0.163262642    0.153530142    0.201659826
 525   Q   :   -0.179147254   -0.228958700    0.062296566
 526   Q   :    0.013073950    0.080271237   -0.264351549
 527   Q   :    0.263773705   -0.125879550    0.064988451
 528   Q   :   -0.190544659   -0.109370201   -0.121938441
 529   Q   :   -0.068145072    0.237019760    0.049076200
 530   Q   :   -0.138683783   -0.235619229    0.076758490
 531   Q   :    0.231112931   -0.032161433   -0.130813536
 532   Q   :   -0.107337564    0.266327083    0.045278358
 533   Q   :    0.155963207    0.045066348    0.242593964
 534   Q   :   -0.272739481   -0.078809704    0.009997626
 535   Q   :    0.126421058    0.029496913   -0.249579169
 536   Q   :    0.176052933   -0.080208021   -0.204426166
 537   Q   :   -0.082582049    0.205377457    0.062415151
 538   Q   :   -0.081247951   -0.130339157    0.132256724
 539   Q   :   -0.268444215    0.055436201    0.115665141
 540   Q   :    0.023318538   -0.255106098   -0.169134712
 541   Q   :    0.237989051    0.193400489    0.042708413
 542   Q   :   -0.128749581    0.249703067   -0.055157586
 543   Q   :   -0.140756113   -0.247033992    0.036734244
 544   Q   :    0.268814451   -0.002305121    0.026919277
 545   Q   :    0.101403917    0.176124015    0.157588650
 546   Q   :   -0.249016368   -0.167013303    0.047245126
 547   Q   :    0.136552498   -0.011561940   -0.204287818
 548   Q   :    0.299226504   -0.045201711   -0.037746293
 549   Q   :   -0.183698755    0.060847321   -0.212801810
 550   Q   :   -0.110078087   -0.017473079    0.247754309
 551   Q   :    0.175209526   -0.222998420   -0.001936392
 552   Q   :   -0.202506366    0.088754731   -0.167339125
 553   Q   :    0.021469981    0.131389408    0.179078840
 554   Q   :    0.173050866    0.155493412    0.114322623
 555   Q   :   -0.063771974   -0.235262363    0.064706704
 556   Q   :   -0.109294274    0.090118442   -0.183029459
 557   Q   :    0.070249528   -0.284658811   -0.053982492
 558   Q   :    0.129626625    0.167409770    0.099622086
 559   Q   :   -0.203534662    0.109038932   -0.053659971
 560   Q   :    0.260364072   -0.049341721   -0.038344365
 561   Q   :   -0.208718403   -0.033410069   -0.153762191
 562   Q   :   -0.052564562    0.067672118    0.185270156
 563   Q   :   -0.183314464   -0.137421782    0.146675178
 564   Q   :   -0.023193882    0.233119176   -0.058035579
 565   Q   :    0.210210119   -0.093379077   -0.087353167
 566   Q   :   -0.133908306    0.255801534   -0.029799749
 567   Q   :    0.254964625   -0.088960543   -0.172093723
 568   Q   :   -0.115591321   -0.177226373    0.203221904
 569   Q   :    0.142130312   -0.075772277   -0.220831882
 570   Q   :    0.024557493   -0.087321922    0.232009684
 571   Q   :   -0.176167569    0.156615965   -0.021029178
 572   Q   :    0.143130515   -0.069458353    0.238025480
 573   Q   :   -0.187809346    0.164075255   -0.018007624
 574   Q   :    0.049718414   -0.088745127   -0.219981852
 575   Q   :   -0.092425099    0.256733599    0.083522947
 576   Q   :   -0.231063843   -0.215836176   -0.030483384
 577   Q   :    0.305383549   -0.038380709   -0.055330202
 578   Q   :    0.156484456   -0.058125456   -0.260671735
 579   Q   :   -0.150127087    0.217968533    0.055848345
 580   Q   :    0.003441183   -0.161662441    0.189580667
 581   Q   :    0.012227828   -0.027431058    0.256407145
 582   Q   :    0.127586318   -0.110523141   -0.200188056
 583   Q   :   -0.154791941    0.142018402   -0.057885531
 584   Q   :   -0.151109747    0.061222231   -0.236738493
 585   Q   :   -0.024013536    0.119941084    0.259411453
 586   Q   :    0.180223112   -0.179658906   -0.024470242
 587   Q   :    0.225694515   -0.142742412    0.024625686
 588   Q   :   -0.265117040   -0.098298535    0.092065503
 589   Q   :    0.039471686    0.254723459   -0.118597336
 590   Q   :   -0.007891906   -0.270330387   -0.054382496
 591   Q   :   -0.026452130    0.197280711   -0.152211628
 592   Q   :    0.031030232    0.063078187    0.209945447
 593   Q   :    0.066898860    0.021816522    0.272807751
 594   Q   :    0.217071442   -0.011275126   -0.199601949
 595   Q   :   -0.278078869   -0.017532567   -0.065916499
 596   Q   :   -0.202676165   -0.163170898    0.059642982
 597   Q   :    0.221831703   -0.035041750   -0.176915571
 598   Q   :   -0.018878169    0.195072892    0.110730662
 599   Q   :   -0.024959785   -0.167600413   -0.251062604
 600   Q   :   -0.063254659   -0.105731512    0.248711455
 601   Q   :    0.090590620    0.274931873   -0.000919448
 602   Q   :   -0.153281906   -0.010871424    0.278137133
 603   Q   :    0.278740721   -0.066750552   -0.029012355
 604   Q   :   -0.125271925    0.080678119   -0.239660376
 605   Q   :   -0.136845183    0.232040217   -0.031548714
 606   Q   :    0.215879721   -0.052781534    0.137457345
 607   Q   :   -0.084412153   -0.173271954   -0.096786106
 608   Q   :   -0.043446659    0.125619252   -0.226695790
 609   Q   :    0.150523086   -0.239868783    0.047063241
 610   Q   :   -0.096625331    0.106336493    0.188887130
 611   Q   :   -0.148411621   -0.148369045    0.104308257
 612   Q   :    0.171893144    0.164871527    0.093295563
 613   Q   :   -0.017973520   -0.013052024   -0.215145934

Difference to translation invariance:
           :   -0.0004028524   -0.0004645523   -0.0001024389

Difference to rotation invariance:
           :    0.0104134617   -0.0028680556   -0.0006359983

Norm of the cartesian gradient     ...    6.1067425286
RMS gradient                       ...    0.1424028710
MAX gradient                       ...    0.3220804170

-------
TIMINGS
-------

Total SCF gradient time            ...      226.027 sec

One electron gradient       ....      27.653 sec  ( 12.2%)
RI-J Coulomb gradient       ....      12.432 sec  (  5.5%)
COSX gradient               ....     141.510 sec  ( 62.6%)
XC gradient                 ....      18.181 sec  (  8.0%)

Maximum memory used throughout the entire SCFGRAD-calculation: 880.8 MB

                            ***************************************
                            *     ORCA property calculations      *
                            ***************************************

                                    ---------------------
                                    Active property flags
                                    ---------------------
   (+) Dipole Moment


------------------------------------------------------------------------------
                       ORCA ELECTRIC PROPERTIES CALCULATION
------------------------------------------------------------------------------

Dipole Moment Calculation                       ... on
Quadrupole Moment Calculation                   ... off
Polarizability Calculation                      ... off
GBWName                                         ... final099.orca.gbw
Electron density                                ... final099.orca.scfp
The origin for moment calculation is the CENTER OF MASS  = (19.741853, 19.545532 21.629402)

-------------
DIPOLE MOMENT
-------------
                                X             Y             Z
Electronic contribution:     -0.18281       1.64563      -0.43870
Nuclear contribution   :      8.38405      -6.42384       7.96949
                        -----------------------------------------
Total Dipole Moment    :      8.20124      -4.77821       7.53078
                        -----------------------------------------
Magnitude (a.u.)       :     12.11629
Magnitude (Debye)      :     30.79715



--------------------
Rotational spectrum 
--------------------
 
Rotational constants in cm-1:     0.001699     0.001378     0.001101 
Rotational constants in MHz :    50.934519    41.302577    33.011351 

 Dipole components along the rotational axes: 
x,y,z [a.u.] :    -3.453331    10.273118    -5.416819 
x,y,z [Debye]:    -8.777670    26.112191   -13.768459 

 

Timings for individual modules:

Sum of individual times         ...      974.391 sec (=  16.240 min)
GTO integral calculation        ...       14.107 sec (=   0.235 min)   1.4 %
SCF iterations                  ...      729.592 sec (=  12.160 min)  74.9 %
SCF Gradient evaluation         ...      230.692 sec (=   3.845 min)  23.7 %
                             ****ORCA TERMINATED NORMALLY****
TOTAL RUN TIME: 0 days 0 hours 16 minutes 22 seconds 634 msec
