
                                 *****************
                                 * O   R   C   A *
                                 *****************

                                            #,                                       
                                            ###                                      
                                            ####                                     
                                            #####                                    
                                            ######                                   
                                           ########,                                 
                                     ,,################,,,,,                         
                               ,,#################################,,                 
                          ,,##########################################,,             
                       ,#########################################, ''#####,          
                    ,#############################################,,   '####,        
                  ,##################################################,,,,####,       
                ,###########''''           ''''###############################       
              ,#####''   ,,,,##########,,,,          '''####'''          '####       
            ,##' ,,,,###########################,,,                        '##       
           ' ,,###''''                  '''############,,,                           
         ,,##''                                '''############,,,,        ,,,,,,###''
      ,#''                                            '''#######################'''  
     '                                                          ''''####''''         
             ,#######,   #######,   ,#######,      ##                                
            ,#'     '#,  ##    ##  ,#'     '#,    #''#        ######   ,####,        
            ##       ##  ##   ,#'  ##            #'  '#       #        #'  '#        
            ##       ##  #######   ##           ,######,      #####,   #    #        
            '#,     ,#'  ##    ##  '#,     ,#' ,#      #,         ##   #,  ,#        
             '#######'   ##     ##  '#######'  #'      '#     #####' # '####'        



                  #######################################################
                  #                        -***-                        #
                  #          Department of theory and spectroscopy      #
                  #    Directorship and core code : Frank Neese         #
                  #        Max Planck Institute fuer Kohlenforschung    #
                  #                Kaiser Wilhelm Platz 1               #
                  #                 D-45470 Muelheim/Ruhr               #
                  #                      Germany                        #
                  #                                                     #
                  #                  All rights reserved                #
                  #                        -***-                        #
                  #######################################################


                         Program Version 5.0.3 -  RELEASE  -


 With contributions from (in alphabetic order):
   Daniel Aravena         : Magnetic Suceptibility
   Michael Atanasov       : Ab Initio Ligand Field Theory (pilot matlab implementation)
   Alexander A. Auer      : GIAO ZORA, VPT2 properties, NMR spectrum
   Ute Becker             : Parallelization
   Giovanni Bistoni       : ED, misc. LED, open-shell LED, HFLD
   Martin Brehm           : Molecular dynamics
   Dmytro Bykov           : SCF Hessian
   Vijay G. Chilkuri      : MRCI spin determinant printing, contributions to CSF-ICE
   Dipayan Datta          : RHF DLPNO-CCSD density
   Achintya Kumar Dutta   : EOM-CC, STEOM-CC
   Dmitry Ganyushin       : Spin-Orbit,Spin-Spin,Magnetic field MRCI
   Miquel Garcia          : C-PCM and meta-GGA Hessian, CC/C-PCM, Gaussian charge scheme
   Yang Guo               : DLPNO-NEVPT2, F12-NEVPT2, CIM, IAO-localization
   Andreas Hansen         : Spin unrestricted coupled pair/coupled cluster methods
   Benjamin Helmich-Paris : MC-RPA, TRAH-SCF, COSX integrals
   Lee Huntington         : MR-EOM, pCC
   Robert Izsak           : Overlap fitted RIJCOSX, COSX-SCS-MP3, EOM
   Marcus Kettner         : VPT2
   Christian Kollmar      : KDIIS, OOCD, Brueckner-CCSD(T), CCSD density, CASPT2, CASPT2-K
   Simone Kossmann        : Meta GGA functionals, TD-DFT gradient, OOMP2, MP2 Hessian
   Martin Krupicka        : Initial AUTO-CI
   Lucas Lang             : DCDCAS
   Marvin Lechner         : AUTO-CI (C++ implementation), FIC-MRCC
   Dagmar Lenk            : GEPOL surface, SMD
   Dimitrios Liakos       : Extrapolation schemes; Compound Job, initial MDCI parallelization
   Dimitrios Manganas     : Further ROCIS development; embedding schemes
   Dimitrios Pantazis     : SARC Basis sets
   Anastasios Papadopoulos: AUTO-CI, single reference methods and gradients
   Taras Petrenko         : DFT Hessian,TD-DFT gradient, ASA, ECA, R-Raman, ABS, FL, XAS/XES, NRVS
   Peter Pinski           : DLPNO-MP2, DLPNO-MP2 Gradient
   Christoph Reimann      : Effective Core Potentials
   Marius Retegan         : Local ZFS, SOC
   Christoph Riplinger    : Optimizer, TS searches, QM/MM, DLPNO-CCSD(T), (RO)-DLPNO pert. Triples
   Tobias Risthaus        : Range-separated hybrids, TD-DFT gradient, RPA, STAB
   Michael Roemelt        : Original ROCIS implementation
   Masaaki Saitow         : Open-shell DLPNO-CCSD energy and density
   Barbara Sandhoefer     : DKH picture change effects
   Avijit Sen             : IP-ROCIS
   Kantharuban Sivalingam : CASSCF convergence, NEVPT2, FIC-MRCI
   Bernardo de Souza      : ESD, SOC TD-DFT
   Georgi Stoychev        : AutoAux, RI-MP2 NMR, DLPNO-MP2 response
   Willem Van den Heuvel  : Paramagnetic NMR
   Boris Wezisla          : Elementary symmetry handling
   Frank Wennmohs         : Technical directorship


 We gratefully acknowledge several colleagues who have allowed us to
 interface, adapt or use parts of their codes:
   Stefan Grimme, W. Hujo, H. Kruse, P. Pracht,  : VdW corrections, initial TS optimization,
                  C. Bannwarth, S. Ehlert          DFT functionals, gCP, sTDA/sTD-DF
   Ed Valeev, F. Pavosevic, A. Kumar             : LibInt (2-el integral package), F12 methods
   Garnet Chan, S. Sharma, J. Yang, R. Olivares  : DMRG
   Ulf Ekstrom                                   : XCFun DFT Library
   Mihaly Kallay                                 : mrcc  (arbitrary order and MRCC methods)
   Jiri Pittner, Ondrej Demel                    : Mk-CCSD
   Frank Weinhold                                : gennbo (NPA and NBO analysis)
   Christopher J. Cramer and Donald G. Truhlar   : smd solvation model
   Lars Goerigk                                  : TD-DFT with DH, B97 family of functionals
   V. Asgeirsson, H. Jonsson                     : NEB implementation
   FAccTs GmbH                                   : IRC, NEB, NEB-TS, DLPNO-Multilevel, CI-OPT
                                                   MM, QMMM, 2- and 3-layer-ONIOM, Crystal-QMMM,
                                                   LR-CPCM, SF, NACMEs, symmetry and pop. for TD-DFT,
                                                   nearIR, NL-DFT gradient (VV10), updates on ESD,
                                                   ML-optimized integration grids
   S Lehtola, MJT Oliveira, MAL Marques          : LibXC Library
   Liviu Ungur et al                             : ANISO software


 Your calculation uses the libint2 library for the computation of 2-el integrals
 For citations please refer to: http://libint.valeyev.net

 Your ORCA version has been built with support for libXC version: 5.1.0
 For citations please refer to: https://tddft.org/programs/libxc/

 This ORCA versions uses:
   CBLAS   interface :  Fast vector & matrix operations
   LAPACKE interface :  Fast linear algebra routines
   SCALAPACK package :  Parallel linear algebra routines
   Shared memory     :  Shared parallel matrices
   BLAS/LAPACK       :  OpenBLAS 0.3.15  USE64BITINT DYNAMIC_ARCH NO_AFFINITY SkylakeX SINGLE_THREADED
        Core in use  :  SkylakeX
   Copyright (c) 2011-2014, The OpenBLAS Project


================================================================================

----- Orbital basis set information -----
Your calculation utilizes the basis: def2-SVP
   F. Weigend and R. Ahlrichs, Phys. Chem. Chem. Phys. 7, 3297 (2005).

The basis set includes element-specific modifications.

Your calculation utilizes the basis: aug-cc-pVTZ 
    H, B-Ne : Obtained from the ccRepo (grant-hill.group.shef.ac.uk/ccrepo) Feb. 2017
              R. A. Kendall, T. H. Dunning, Jr., R. J. Harrison, J. Chem. Phys. 96, 6796 (1992)
         He : Obtained from the ccRepo (grant-hill.group.shef.ac.uk/ccrepo) Feb. 2017
              D. E. Woon, T. H. Dunning, Jr., J. Chem. Phys. 100, 2975 (1994)
  Li-Be, Na : Obtained from the ccRepo (grant-hill.group.shef.ac.uk/ccrepo) Feb. 2017
              B. P. Prascher, D. E. Woon, K. A. Peterson, T. H. Dunning, Jr., A. K. Wilson, Theor. Chem. Acc. 128, 69 (2011)
         Mg : Obtained from the Peterson Research Group Website (tyr0.chem.wsu.edu/~kipeters) Feb. 2017
              B. P. Prascher, D. E. Woon, K. A. Peterson, T. H. Dunning, Jr., A. K. Wilson, Theor. Chem. Acc. 128, 69 (2011)
      Al-Ar : Obtained from the ccRepo (grant-hill.group.shef.ac.uk/ccrepo) Feb. 2017
              D. E. Woon, T. H. Dunning, Jr., J. Chem. Phys. 98, 1358 (1993)
      Sc-Zn : Obtained from the ccRepo (grant-hill.group.shef.ac.uk/ccrepo) Feb. 2017
              N. B. Balabanov, K. A. Peterson, J. Chem. Phys. 123, 064107 (2005)
              N. B. Balabanov, K. A. Peterson, J. Chem. Phys. 125, 074110 (2006)
      Ga-Kr : Obtained from the ccRepo (grant-hill.group.shef.ac.uk/ccrepo) Feb. 2017
              A. K. Wilson, D. E. Woon, K. A. Peterson, T. H. Dunning, Jr., J. Chem. Phys. 110, 7667 (1999)
     Ag, Au : Obtained from the Peterson Research Group Website (tyr0.chem.wsu.edu/~kipeters) Feb. 2017
              K. A. Peterson, C. Puzzarini, Theor. Chem. Acc. 114, 283 (2005)

Your calculation utilizes the basis: cc-pVTZ 
       H, B-Ne : Obtained from the ccRepo (grant-hill.group.shef.ac.uk/ccrepo) Feb. 2017
                 T. H. Dunning, Jr., J. Chem. Phys. 90, 1007 (1989)
            He : Obtained from the ccRepo (grant-hill.group.shef.ac.uk/ccrepo) Feb. 2017
                 D. E. Woon, T. H. Dunning, Jr., J. Chem. Phys. 100, 2975 (1994)
  Li-Be, Na-Mg : Obtained from the ccRepo (grant-hill.group.shef.ac.uk/ccrepo) Feb. 2017
                 B. P. Prascher, D. E. Woon, K. A. Peterson, T. H. Dunning, Jr., A. K. Wilson, Theor. Chem. Acc. 128, 69 (2011)
         Al-Ar : Obtained from the ccRepo (grant-hill.group.shef.ac.uk/ccrepo) Feb. 2017
                 D. E. Woon, T. H. Dunning, Jr., J. Chem. Phys. 98, 1358 (1993)
            Ca : Obtained from the Peterson Research Group Website (tyr0.chem.wsu.edu/~kipeters) Feb. 2017
                 J. Koput, K. A. Peterson, J. Phys. Chem. 106, 9595 (2002)
         Sc-Zn : Obtained from the ccRepo (grant-hill.group.shef.ac.uk/ccrepo) Feb. 2017
                 N. B. Balabanov, K. A. Peterson, J. Chem. Phys. 123, 064107 (2005)
                 N. B. Balabanov, K. A. Peterson, J. Chem. Phys. 125, 074110 (2006)
         Ga-Kr : Obtained from the ccRepo (grant-hill.group.shef.ac.uk/ccrepo) Feb. 2017
                 A. K. Wilson, D. E. Woon, K. A. Peterson, T. H. Dunning, Jr., J. Chem. Phys. 110, 7667 (1999)
             Y : Obtained from the ccRepo (grant-hill.group.shef.ac.uk/ccrepo) Feb. 2017
                 K. A. Peterson, D. Figgen, M. Dolg, H. Stoll, J. Chem. Phys. 126, 124101 (2007)
        Ag, Au : Obtained from the Peterson Research Group Website (tyr0.chem.wsu.edu/~kipeters) Feb. 2017
                 K. A. Peterson, C. Puzzarini, Theor. Chem. Acc. 114, 283 (2005)

----- AuxJ basis set information -----
Your calculation utilizes the auxiliary basis: def2/J
   F. Weigend, Phys. Chem. Chem. Phys. 8, 1057 (2006).

================================================================================
                                        WARNINGS
                       Please study these warnings very carefully!
================================================================================

WARNING: The globally-selected AuxJ basis set is optimized for use with ECPs
         Make sure a suitable alternative is explicitly given all heavy elements (Z>36)

INFO   : the flag for use of the SHARK integral package has been found!

================================================================================
                                       INPUT FILE
================================================================================
NAME = final064.orca.inp
|  1> ! NoMOPrint PrintBasis #MINIPRINT SMALLPRINT LARGEPRINT
|  2> ! ALLPOP XYZFILE
|  3> #! BP86 3-21G   TightSCF
|  4> ! ENGRAD
|  5> ! B3LYP NormalPNO PModel #DecontractAux
|  6> #! VerySlowConv 
|  7>  %maxcore 5000
|  8>  %scf  maxiter   500  end 
|  9> 
| 10> %pal
| 11>     nprocs 32
| 12> end
| 13> 
| 14> %basis
| 15>     NewGTO O    # New basis for oxygen
| 16>         "aug-cc-pVTZ"
| 17>     end
| 18>     NewGTO C    # New basis for carbon
| 19>         "aug-cc-pVTZ"
| 20>     end
| 21>     NewGTO H    # New basis for hydrogen
| 22>         "cc-pVTZ"
| 23>     end
| 24> end
| 25> 
| 26> * xyz 0   1
| 27>   C  10.92  11.3  9.01  #1
| 28>   H  11.49  12.25  8.74  #2
| 29>   H  9.87  11.59  9.18  #3
| 30>   C  11.49  10.5  10.17  #4
| 31>   H  11.12  9.46  10.39  #5
| 32>   H  12.59  10.36  9.97  #6
| 33>   C  11.36  11.2  11.53  #7
| 34>   H  11.58  12.34  11.52  #8
| 35>   H  12.07  10.69  12.23  #9
| 36>   C  10.02  11.11  12.15  #10
| 37>   H  9.21  10.98  11.34  #11
| 38>   H  9.73  11.97  12.7  #12
| 39>   O  9.82  9.98  13.1  #13
| 40>   H  10.08  10.16  14.02  #14
| 41>   O  10.87  10.49  7.77  #15
| 42>   H  10.25  9.74  7.94  #16
| 43>   O  13.14  9.38  6.8  #17
| 44>   H  12.27  9.88  6.96  #18
| 45>   H  13.03  8.9  5.95  #19
| 46>   O  9.12  14.1  9.96  #20
| 47>   H  8.87  13.55  9.21  #21
| 48>   H  9.9  14.56  9.71  #22
| 49>   O  9.08  14.35  12.97  #23
| 50>   H  9.87  14.86  13.15  #24
| 51>   H  9.02  14.29  12.01  #25
| 52>   O  13.82  13.27  12.57  #26
| 53>   H  13.6  13.73  11.78  #27
| 54>   H  14.74  13.54  12.68  #28
| 55>   O  13.48  14.15  9.98  #29
| 56>   H  14.12  14.81  9.76  #30
| 57>   H  12.61  14.6  9.75  #31
| 58>   O  7.85  12.71  7.83  #32
| 59>   H  7.38  11.97  8.27  #33
| 60>   H  7.63  12.78  6.9  #34
| 61>   O  9.21  12.86  15.21  #35
| 62>   H  9.03  13.45  14.45  #36
| 63>   H  8.57  12.13  15.1  #37
| 64>   O  8.36  7.41  13.32  #38
| 65>   H  9  8.1  13.06  #39
| 66>   H  8.86  6.71  13.81  #40
| 67>   O  14.11  8.47  11.76  #41
| 68>   H  14.97  8.37  11.23  #42
| 69>   H  14.23  9.37  12  #43
| 70>   O  7.84  10.74  16.17  #44
| 71>   H  7.6  10.78  17.1  #45
| 72>   H  8.49  10.05  16.1  #46
| 73>   O  14.66  11.69  8.93  #47
| 74>   H  14.72  12.07  8.02  #48
| 75>   H  14.22  12.34  9.5  #49
| 76>   O  15.96  9.09  6.28  #50
| 77>   H  15.1  8.96  6.57  #51
| 78>   H  16.54  8.37  6.57  #52
| 79>   O  13.18  14.34  14.92  #53
| 80>   H  13.41  13.9  14.08  #54
| 81>   H  12.44  13.76  15.24  #55
| 82>   O  6.48  9.05  14.19  #56
| 83>   H  7.4  8.79  14.17  #57
| 84>   H  6.44  9.81  14.79  #58
| 85>   O  12.94  7.79  9.29  #59
| 86>   H  13.1  8.15  10.12  #60
| 87>   H  13.17  8.57  8.75  #61
| 88>   O  10.09  7.08  9.95  #62
| 89>   H  9.83  6.17  10.25  #63
| 90>   H  11.03  7.09  9.89  #64
| 91>   O  11.24  12.09  5.48  #65
| 92>   H  10.95  13.04  5.43  #66
| 93>   H  10.9  11.74  6.32  #67
| 94>   O  11.27  15.56  9.03  #68
| 95>   H  11.53  15.81  8.14  #69
| 96>   H  11.36  16.37  9.52  #70
| 97>   O  15.63  16.1  9.07  #71
| 98>   H  15.61  16.47  8.16  #72
| 99>   H  16.52  15.72  9.27  #73
|100>   O  13.1  8.27  3.88  #74
|101>   H  13.83  8.79  3.52  #75
|102>   H  12.33  8.62  3.39  #76
|103>   O  10.98  15.88  13.96  #77
|104>   H  10.77  16.37  14.79  #78
|105>   H  11.72  15.38  14.23  #79
|106>   O  16.33  14.52  12.98  #80
|107>   H  17.16  14.44  13.49  #81
|108>   H  16  15.42  13.13  #82
|109>   O  8.71  8.76  8.04  #83
|110>   H  7.96  9.03  8.58  #84
|111>   H  9.11  7.91  8.41  #85
|112>   O  6.52  15.47  9.72  #86
|113>   H  6.2  15.63  10.67  #87
|114>   H  7.48  15.31  9.78  #88
|115>   O  10.56  9.22  16.04  #89
|116>   H  11.29  9.34  15.35  #90
|117>   H  10.83  9.61  16.85  #91
|118>   O  7.5  16.58  12.7  #92
|119>   H  8.12  17.06  13.17  #93
|120>   H  7.84  15.68  12.69  #94
|121>   O  15.2  10.85  13.28  #95
|122>   H  15.87  10.62  12.63  #96
|123>   H  14.76  11.55  12.89  #97
|124>   Q  0.6645  6.92$  1.85$  9.47$
|125>   Q  0.6645  5.54$  1.33$  10.03$
|126>   Q  -1.3290  6.07$  1.63$  9.42$
|127>   Q  0.6645  12.24$  2.58$  9.63$
|128>   Q  0.6645  12.27$  2.69$  11.14$
|129>   Q  -1.3290  12.56$  2.83$  10.39$
|130>   Q  0.6645  14.11$  12.19$  3.4$
|131>   Q  0.6645  12.84$  12.84$  2.57$
|132>   Q  -1.3290  13.59$  12.79$  3$
|133>   Q  0.6645  18.27$  9.28$  13.69$
|134>   Q  0.6645  18.72$  9.06$  15.06$
|135>   Q  -1.3290  18.41$  8.82$  14.33$
|136>   Q  0.6645  7.78$  7.03$  20.38$
|137>   Q  0.6645  7$  5.78$  19.71$
|138>   Q  -1.3290  7.3$  6.58$  19.77$
|139>   Q  0.6645  11.58$  12.89$  17.13$
|140>   Q  0.6645  10.74$  12.7$  15.82$
|141>   Q  -1.3290  11.4$  12.62$  16.34$
|142>   Q  0.6645  2.5$  7.82$  7.5$
|143>   Q  0.6645  2.99$  7.59$  6.12$
|144>   Q  -1.3290  2.53$  7.4$  6.78$
|145>   Q  0.6645  6.88$  4.29$  15.77$
|146>   Q  0.6645  6.94$  4.49$  14.22$
|147>   Q  -1.3290  6.58$  4.28$  14.97$
|148>   Q  0.6645  14.65$  5.85$  13.65$
|149>   Q  0.6645  13.96$  6.76$  12.7$
|150>   Q  -1.3290  14.08$  6.07$  13.08$
|151>   Q  0.6645  4.89$  8.27$  7.6$
|152>   Q  0.6645  5.41$  9.64$  8.23$
|153>   Q  -1.3290  4.95$  9.12$  7.74$
|154>   Q  0.6645  4.31$  13.04$  8.22$
|155>   Q  0.6645  5.38$  13.72$  9.14$
|156>   Q  -1.3290  4.79$  13.12$  8.91$
|157>   Q  0.6645  10.49$  3.63$  3.74$
|158>   Q  0.6645  10.18$  4.75$  2.58$
|159>   Q  -1.3290  10.53$  4.4$  3.32$
|160>   Q  0.6645  10.02$  6.18$  4.1$
|161>   Q  0.6645  10.59$  7.24$  5.07$
|162>   Q  -1.3290  10.03$  6.91$  4.51$
|163>   Q  0.6645  18.1$  11.41$  8.73$
|164>   Q  0.6645  16.57$  11.55$  9.11$
|165>   Q  -1.3290  17.42$  11.65$  9.22$
|166>   Q  0.6645  13.32$  2.06$  6.22$
|167>   Q  0.6645  13.48$  0.61$  5.66$
|168>   Q  -1.3290  13.53$  1.48$  5.64$
|169>   Q  0.6645  14.46$  11.45$  18.6$
|170>   Q  0.6645  14.02$  11.24$  20.21$
|171>   Q  -1.3290  13.99$  11.5$  19.36$
|172>   Q  0.6645  20.87$  10.35$  13.58$
|173>   Q  0.6645  21.22$  9.26$  12.6$
|174>   Q  -1.3290  20.81$  9.94$  12.86$
|175>   Q  0.6645  7.73$  2.76$  5.79$
|176>   Q  0.6645  8.06$  4.27$  6.2$
|177>   Q  -1.3290  8.16$  3.44$  6.14$
|178>   Q  0.6645  7.97$  19.66$  13.76$
|179>   Q  0.6645  8.35$  18.83$  14.97$
|180>   Q  -1.3290  8.42$  19.11$  14.17$
|181>   Q  0.6645  10.45$  21.38$  10.94$
|182>   Q  0.6645  9.41$  20.49$  10.6$
|183>   Q  -1.3290  9.74$  21.11$  11.06$
|184>   Q  0.6645  14.48$  2.74$  4.03$
|185>   Q  0.6645  15.5$  3.73$  4.02$
|186>   Q  -1.3290  14.87$  3.35$  3.68$
|187>   Q  0.6645  16.47$  13.79$  15.45$
|188>   Q  0.6645  15.09$  13.95$  15.59$
|189>   Q  -1.3290  15.84$  13.94$  15.92$
|190>   Q  0.6645  17.03$  10.98$  21.35$
|191>   Q  0.6645  16.56$  11.55$  19.97$
|192>   Q  -1.3290  16.82$  10.95$  20.52$
|193>   Q  0.6645  9.21$  8.62$  21.44$
|194>   Q  0.6645  8.32$  7.94$  22.4$
|195>   Q  -1.3290  8.73$  7.98$  21.7$
|196>   Q  0.6645  3.6$  3.92$  9.28$
|197>   Q  0.6645  4.97$  3.41$  9.15$
|198>   Q  -1.3290  4.43$  4$  9.32$
|199>   Q  0.6645  11.21$  17.65$  12.06$
|200>   Q  0.6645  10.26$  17.78$  10.88$
|201>   Q  -1.3290  11$  17.56$  11.24$
|202>   Q  0.6645  16.11$  14.43$  17.93$
|203>   Q  0.6645  16.57$  14.75$  19.48$
|204>   Q  -1.3290  16.11$  14.81$  18.74$
|205>   Q  0.6645  5.36$  1.76$  17.27$
|206>   Q  0.6645  5.24$  3.11$  16.55$
|207>   Q  -1.3290  5.49$  2.58$  17.15$
|208>   Q  0.6645  0.55$  14.73$  13.66$
|209>   Q  0.6645  2.08$  14.87$  13.87$
|210>   Q  -1.3290  1.28$  15.05$  13.98$
|211>   Q  0.6645  14.52$  3.83$  12.25$
|212>   Q  0.6645  15.05$  2.87$  11.2$
|213>   Q  -1.3290  14.97$  3.19$  11.97$
|214>   Q  0.6645  6.34$  10.34$  10.24$
|215>   Q  0.6645  5.76$  11.59$  9.39$
|216>   Q  -1.3290  6.32$  10.93$  9.59$
|217>   Q  0.6645  2.49$  9.31$  14.46$
|218>   Q  0.6645  3.61$  10.28$  13.96$
|219>   Q  -1.3290  2.88$  9.88$  13.92$
|220>   Q  0.6645  7.76$  16.92$  19.07$
|221>   Q  0.6645  9.1$  17.37$  18.81$
|222>   Q  -1.3290  8.38$  17.08$  18.54$
|223>   Q  0.6645  19.46$  12.32$  5.08$
|224>   Q  0.6645  17.86$  12.41$  5.27$
|225>   Q  -1.3290  18.69$  12.4$  5.54$
|226>   Q  0.6645  8.34$  14.74$  -0.71$
|227>   Q  0.6645  8.67$  15.17$  0.81$
|228>   Q  -1.3290  8.2$  15.09$  0.06$
|229>   Q  0.6645  6.5$  5.54$  4.72$
|230>   Q  0.6645  5.87$  5.24$  3.17$
|231>   Q  -1.3290  5.9$  5.34$  4.06$
|232>   Q  0.6645  7.99$  8.66$  3.14$
|233>   Q  0.6645  6.62$  9.02$  2.66$
|234>   Q  -1.3290  7.39$  8.75$  2.53$
|235>   Q  0.6645  2.93$  10.95$  3.59$
|236>   Q  0.6645  2.96$  10.99$  2.01$
|237>   Q  -1.3290  2.71$  11.22$  2.81$
|238>   Q  0.6645  5.52$  10.79$  1.51$
|239>   Q  0.6645  5.49$  12.22$  1.84$
|240>   Q  -1.3290  5.87$  11.53$  1.65$
|241>   Q  0.6645  7.05$  8.67$  19.37$
|242>   Q  0.6645  7.7$  10.12$  19.29$
|243>   Q  -1.3290  7.08$  9.53$  19.18$
|244>   Q  0.6645  8.67$  11.53$  3.25$
|245>   Q  0.6645  7.67$  12.26$  2.24$
|246>   Q  -1.3290  8.3$  12.19$  2.84$
|247>   Q  0.6645  18.61$  7.23$  11.12$
|248>   Q  0.6645  19.24$  8.58$  11.32$
|249>   Q  -1.3290  19.03$  7.94$  10.88$
|250>   Q  0.6645  17.78$  15.77$  4.75$
|251>   Q  0.6645  17.73$  15.79$  3.2$
|252>   Q  -1.3290  17.43$  15.84$  3.98$
|253>   Q  0.6645  13.56$  14.61$  3.65$
|254>   Q  0.6645  14.11$  16.01$  4.04$
|255>   Q  -1.3290  13.59$  15.46$  3.67$
|256>   Q  0.6645  1.6$  12.83$  12.92$
|257>   Q  0.6645  1.68$  11.45$  13.79$
|258>   Q  -1.3290  1.42$  12.25$  13.55$
|259>   Q  0.6645  9.95$  2.89$  5.52$
|260>   Q  0.6645  11.43$  3.2$  5.42$
|261>   Q  -1.3290  10.75$  2.71$  5.38$
|262>   Q  0.6645  11.77$  16.49$  2.84$
|263>   Q  0.6645  10.47$  17.29$  2.08$
|264>   Q  -1.3290  11.06$  17.03$  2.69$
|265>   Q  0.6645  15.27$  20.04$  8.69$
|266>   Q  0.6645  15.89$  19.03$  7.65$
|267>   Q  -1.3290  15.27$  19.39$  8.1$
|268>   Q  0.6645  1.12$  9.8$  4.5$
|269>   Q  0.6645  1.88$  10.32$  5.75$
|270>   Q  -1.3290  1.22$  9.99$  5.31$
|271>   Q  0.6645  15.53$  7.2$  2.23$
|272>   Q  0.6645  16.46$  7.63$  3.28$
|273>   Q  -1.3290  16.11$  7.11$  2.8$
|274>   Q  0.6645  13.38$  6.26$  15.2$
|275>   Q  0.6645  13.2$  5.39$  16.43$
|276>   Q  -1.3290  13.03$  6.03$  15.91$
|277>   Q  0.6645  15.93$  16.86$  4.75$
|278>   Q  0.6645  15.08$  18.17$  4.72$
|279>   Q  -1.3290  15.27$  17.36$  4.9$
|280>   Q  0.6645  7.99$  10.42$  0.85$
|281>   Q  0.6645  9.48$  10.73$  1.13$
|282>   Q  -1.3290  8.81$  10.58$  0.65$
|283>   Q  0.6645  3.11$  9.84$  17.17$
|284>   Q  0.6645  1.56$  9.82$  16.95$
|285>   Q  -1.3290  2.27$  10.1$  17.28$
|286>   Q  0.6645  5.4$  13.32$  20.84$
|287>   Q  0.6645  6.31$  14.24$  21.74$
|288>   Q  -1.3290  5.56$  13.97$  21.35$
|289>   Q  0.6645  3.05$  13.59$  6.44$
|290>   Q  0.6645  4.22$  14.26$  5.85$
|291>   Q  -1.3290  3.86$  13.72$  6.34$
|292>   Q  0.6645  2.28$  16.58$  11.87$
|293>   Q  0.6645  3.04$  16.38$  10.64$
|294>   Q  -1.3290  2.94$  16.27$  11.45$
|295>   Q  0.6645  16.84$  7.19$  8.34$
|296>   Q  0.6645  16.48$  6.31$  7.18$
|297>   Q  -1.3290  16.95$  6.86$  7.57$
|298>   Q  0.6645  9.61$  15.27$  5.17$
|299>   Q  0.6645  11.08$  15.44$  5.18$
|300>   Q  -1.3290  10.38$  15$  5.17$
|301>   Q  0.6645  10.07$  15.11$  2.81$
|302>   Q  0.6645  9.53$  13.73$  2.38$
|303>   Q  -1.3290  9.75$  14.52$  2.27$
|304>   Q  0.6645  17.43$  11.61$  1.55$
|305>   Q  0.6645  17.62$  10.04$  1.43$
|306>   Q  -1.3290  17.19$  10.78$  1.42$
|307>   Q  0.6645  5.32$  8.48$  15.94$
|308>   Q  0.6645  5.71$  9.32$  17.21$
|309>   Q  -1.3290  5.21$  8.87$  16.7$
|310>   Q  0.6645  8.76$  19.95$  7.08$
|311>   Q  0.6645  7.91$  18.71$  6.61$
|312>   Q  -1.3290  8.47$  19.15$  7.09$
|313>   Q  0.6645  20.22$  6.94$  9.62$
|314>   Q  0.6645  21.3$  7.44$  8.59$
|315>   Q  -1.3290  20.96$  6.91$  9.2$
|316>   Q  0.6645  10.59$  18.89$  14.17$
|317>   Q  0.6645  12.08$  18.45$  14.22$
|318>   Q  -1.3290  11.41$  18.92$  13.98$
|319>   Q  0.6645  9.86$  10.99$  18.84$
|320>   Q  0.6645  9.07$  11.24$  20.25$
|321>   Q  -1.3290  9.21$  11.23$  19.37$
|322>   Q  0.6645  13.51$  5.97$  9.14$
|323>   Q  0.6645  13.61$  4.61$  9.65$
|324>   Q  -1.3290  13.94$  5.29$  9.34$
|325>   Q  0.6645  18.94$  13.15$  7.28$
|326>   Q  0.6645  18.4$  13.86$  8.48$
|327>   Q  -1.3290  19.01$  13.67$  7.91$
|328>   Q  0.6645  7.76$  15.39$  17.25$
|329>   Q  0.6645  8$  14.12$  16.53$
|330>   Q  -1.3290  7.54$  14.78$  16.74$
|331>   Q  0.6645  8.07$  7.39$  10.6$
|332>   Q  0.6645  6.68$  7.58$  11.33$
|333>   Q  -1.3290  7.22$  7.42$  10.69$
|334>   Q  0.6645  5.02$  2.06$  4.48$
|335>   Q  0.6645  5.01$  3.6$  4.65$
|336>   Q  -1.3290  4.68$  2.81$  4.63$
|337>   Q  0.6645  13.17$  2.11$  13.35$
|338>   Q  0.6645  11.67$  1.72$  13.81$
|339>   Q  -1.3290  12.34$  1.84$  13.28$
|340>   Q  0.6645  14.8$  18.17$  10.16$
|341>   Q  0.6645  13.28$  18.48$  10.74$
|342>   Q  -1.3290  14.18$  18.44$  10.72$
|343>   Q  0.6645  17.57$  5.46$  12.67$
|344>   Q  0.6645  17.85$  4.87$  11.21$
|345>   Q  -1.3290  17.83$  5.47$  11.84$
|346>   Q  0.6645  15.6$  12.92$  4.88$
|347>   Q  0.6645  16.55$  13.67$  3.88$
|348>   Q  -1.3290  16.3$  13.04$  4.42$
|349>   Q  0.6645  18.05$  15.55$  10.42$
|350>   Q  0.6645  17.26$  14.33$  10.94$
|351>   Q  -1.3290  17.63$  14.79$  10.35$
|352>   Q  0.6645  12.31$  10.76$  18.87$
|353>   Q  0.6645  11.58$  9.51$  19.03$
|354>   Q  -1.3290  11.69$  10.23$  18.69$
|355>   Q  0.6645  15.38$  6.48$  9.91$
|356>   Q  0.6645  16.55$  6.49$  10.81$
|357>   Q  -1.3290  16.05$  6.81$  10.26$
|358>   Q  0.6645  12.22$  20.66$  12.41$
|359>   Q  0.6645  12.46$  22.19$  12.18$
|360>   Q  -1.3290  12.42$  21.36$  11.96$
|361>   Q  0.6645  5.16$  10.95$  19.29$
|362>   Q  0.6645  4.84$  12.32$  18.54$
|363>   Q  -1.3290  4.96$  11.8$  19.2$
|364>   Q  0.6645  14.15$  18.69$  19.3$
|365>   Q  0.6645  13.45$  17.48$  18.47$
|366>   Q  -1.3290  13.5$  18.19$  19.02$
|367>   Q  0.6645  10.71$  18.04$  16.56$
|368>   Q  0.6645  9.54$  17.27$  16.98$
|369>   Q  -1.3290  10.09$  17.53$  16.43$
|370>   Q  0.6645  19.86$  17.12$  10.99$
|371>   Q  0.6645  18.47$  17.64$  11.41$
|372>   Q  -1.3290  19.03$  17.02$  11.21$
|373>   Q  0.6645  20.27$  11.48$  11.58$
|374>   Q  0.6645  19.54$  12.5$  10.63$
|375>   Q  -1.3290  20.17$  12.01$  10.89$
|376>   Q  0.6645  13.63$  9.32$  16.82$
|377>   Q  0.6645  13.57$  7.86$  17.01$
|378>   Q  -1.3290  13.94$  8.61$  17.14$
|379>   Q  0.6645  16.03$  7.66$  0.37$
|380>   Q  0.6645  14.66$  7.44$  -0.27$
|381>   Q  -1.3290  15.18$  7.73$  0.31$
|382>   Q  0.6645  0.03$  7.91$  10.54$
|383>   Q  0.6645  1.21$  8.72$  11.08$
|384>   Q  -1.3290  0.57$  8.22$  11.14$
|385>   Q  0.6645  18.01$  17.33$  7.11$
|386>   Q  0.6645  18.44$  18.6$  7.98$
|387>   Q  -1.3290  17.92$  17.96$  7.68$
|388>   Q  0.6645  10.53$  10.68$  4.59$
|389>   Q  0.6645  9.35$  9.8$  4.83$
|390>   Q  -1.3290  9.9$  10.22$  4.36$
|391>   Q  0.6645  10.41$  2.5$  15.74$
|392>   Q  0.6645  11.7$  3.2$  16$
|393>   Q  -1.3290  11.03$  3$  15.56$
|394>   Q  0.6645  8.08$  5.59$  18.09$
|395>   Q  0.6645  8.89$  5.75$  16.86$
|396>   Q  -1.3290  8.44$  5.33$  17.39$
|397>   Q  0.6645  18.53$  16.46$  13.05$
|398>   Q  0.6645  18.07$  16.58$  14.44$
|399>   Q  -1.3290  18.51$  16.21$  13.85$
|400>   Q  0.6645  4.6$  16.06$  4.68$
|401>   Q  0.6645  4.71$  14.8$  3.81$
|402>   Q  -1.3290  4.94$  15.34$  4.42$
|403>   Q  0.6645  11.36$  2.71$  18.75$
|404>   Q  0.6645  11.87$  1.32$  18.72$
|405>   Q  -1.3290  11.45$  1.94$  19.08$
|406>   Q  0.6645  15.71$  8.9$  18.06$
|407>   Q  0.6645  16.5$  9.48$  19.23$
|408>   Q  -1.3290  16.38$  8.98$  18.56$
|409>   Q  0.6645  10.89$  5.98$  15.69$
|410>   Q  0.6645  10.29$  7.4$  15.92$
|411>   Q  -1.3290  10.26$  6.55$  15.68$
|412>   Q  0.6645  8.01$  18.01$  10.24$
|413>   Q  0.6645  8.68$  18.68$  8.98$
|414>   Q  -1.3290  8.64$  18.35$  9.8$
|415>   Q  0.6645  3.92$  5.56$  12.41$
|416>   Q  0.6645  4.26$  4.53$  11.27$
|417>   Q  -1.3290  4.38$  4.99$  11.99$
|418>   Q  0.6645  11.96$  5.39$  13.05$
|419>   Q  0.6645  11.42$  4.13$  13.79$
|420>   Q  -1.3290  11.46$  4.73$  13.18$
|421>   Q  0.6645  16.13$  20.06$  11.8$
|422>   Q  0.6645  14.78$  20.53$  11.89$
|423>   Q  -1.3290  15.58$  20.65$  11.87$
|424>   Q  0.6645  2.06$  12.29$  16.68$
|425>   Q  0.6645  1.67$  13.47$  15.84$
|426>   Q  -1.3290  1.79$  13.06$  16.56$
|427>   Q  0.6645  12.96$  4.43$  6.52$
|428>   Q  0.6645  13.39$  3.7$  7.86$
|429>   Q  -1.3290  12.87$  3.94$  7.22$
|430>   Q  0.6645  12.11$  17.48$  6.37$
|431>   Q  0.6645  13.38$  16.63$  5.95$
|432>   Q  -1.3290  12.56$  16.75$  6.2$
|433>   Q  0.6645  18.72$  14.28$  14.64$
|434>   Q  0.6645  19.05$  12.76$  14.68$
|435>   Q  -1.3290  18.61$  13.49$  14.84$
|436>   Q  0.6645  3.2$  13.2$  10.38$
|437>   Q  0.6645  2.71$  11.85$  11.05$
|438>   Q  -1.3290  2.68$  12.68$  10.82$
|439>   Q  0.6645  5.48$  9.7$  12.68$
|440>   Q  0.6645  4.43$  9.5$  11.65$
|441>   Q  -1.3290  5.21$  9.63$  11.89$
|442>   Q  0.6645  10.59$  18.73$  7.06$
|443>   Q  0.6645  11.68$  19.62$  7.61$
|444>   Q  -1.3290  11.36$  19.06$  7.08$
|445>   Q  0.6645  16.84$  6.59$  14.22$
|446>   Q  0.6645  16.76$  5.4$  15.22$
|447>   Q  -1.3290  16.59$  5.83$  14.53$
|448>   Q  0.6645  13.91$  17.83$  1.24$
|449>   Q  0.6645  13.77$  16.51$  2.06$
|450>   Q  -1.3290  14$  16.98$  1.38$
|451>   Q  0.6645  5.64$  13.88$  16.68$
|452>   Q  0.6645  4.34$  14.2$  17.25$
|453>   Q  -1.3290  4.95$  13.66$  17.04$
|454>   Q  0.6645  15.24$  14.03$  0.41$
|455>   Q  0.6645  15.26$  13.43$  1.81$
|456>   Q  -1.3290  15.6$  13.66$  1.07$
|457>   Q  0.6645  12.65$  20.33$  5.78$
|458>   Q  0.6645  13.81$  20.37$  6.79$
|459>   Q  -1.3290  13.37$  20.64$  6.12$
|460>   Q  0.6645  4.76$  3.2$  14.08$
|461>   Q  0.6645  3.48$  2.63$  13.46$
|462>   Q  -1.3290  4.14$  2.62$  13.95$
|463>   Q  0.6645  14.31$  9.72$  0.68$
|464>   Q  0.6645  13.96$  11.19$  1.12$
|465>   Q  -1.3290  13.83$  10.46$  0.71$
|466>   Q  0.6645  7.08$  10.12$  5.51$
|467>   Q  0.6645  7.33$  8.94$  6.5$
|468>   Q  -1.3290  7.2$  9.32$  5.73$
|469>   Q  0.6645  5.33$  5.67$  8.53$
|470>   Q  0.6645  6.5$  6.46$  9.02$
|471>   Q  -1.3290  5.95$  6.22$  8.45$
|472>   Q  0.6645  20.83$  13.75$  11.89$
|473>   Q  0.6645  20.03$  15.07$  12.21$
|474>   Q  -1.3290  20.68$  14.49$  12.26$
|475>   Q  0.6645  5.95$  17.92$  12.73$
|476>   Q  0.6645  4.4$  17.59$  12.47$
|477>   Q  -1.3290  5.1$  18$  12.79$
|478>   Q  0.6645  17.57$  16.4$  16.72$
|479>   Q  0.6645  16.34$  16.29$  15.68$
|480>   Q  -1.3290  17.02$  16.63$  16.06$
|481>   Q  0.6645  11.71$  18.64$  3.58$
|482>   Q  0.6645  10.88$  19.76$  4.13$
|483>   Q  -1.3290  11.53$  19.44$  3.68$
|484>   Q  0.6645  18.5$  5.87$  6.39$
|485>   Q  0.6645  19.82$  5.49$  5.67$
|486>   Q  -1.3290  19.02$  5.37$  5.92$
|487>   Q  0.6645  13.74$  13.95$  6.29$
|488>   Q  0.6645  13.26$  12.7$  5.73$
|489>   Q  -1.3290  13.83$  13.19$  6.07$
|490>   Q  0.6645  4.27$  10.19$  6.3$
|491>   Q  0.6645  3.79$  11.6$  6.03$
|492>   Q  -1.3290  3.85$  10.78$  5.89$
|493>   Q  0.6645  12.49$  4.33$  1.2$
|494>   Q  0.6645  13.85$  3.92$  1.94$
|495>   Q  -1.3290  13.31$  4.13$  1.28$
|496>   Q  0.6645  9.01$  13.02$  19.01$
|497>   Q  0.6645  10.01$  14.27$  19.25$
|498>   Q  -1.3290  9.25$  13.85$  19.19$
|499>   Q  0.6645  10.73$  13.02$  0.91$
|500>   Q  0.6645  11.87$  12.31$  0.32$
|501>   Q  -1.3290  11.42$  12.57$  0.95$
|502>   Q  0.6645  8.81$  1.93$  18.03$
|503>   Q  0.6645  8.76$  3.31$  17.3$
|504>   Q  -1.3290  8.75$  2.45$  17.36$
|505>   Q  0.6645  8.91$  1.05$  10.33$
|506>   Q  0.6645  9.12$  2.58$  10$
|507>   Q  -1.3290  8.87$  1.76$  9.85$
|508>   Q  0.6645  7.1$  18.3$  17.39$
|509>   Q  0.6645  7.34$  19.78$  16.76$
|510>   Q  -1.3290  6.97$  18.99$  16.84$
|511>   Q  0.6645  18.69$  9.18$  17.65$
|512>   Q  0.6645  19.94$  9.83$  16.88$
|513>   Q  -1.3290  19.14$  9.5$  16.96$
|514>   Q  0.6645  14.74$  5.31$  5.37$
|515>   Q  0.6645  15.91$  5.82$  4.61$
|516>   Q  -1.3290  15.53$  5.55$  5.3$
|517>   Q  0.6645  8.25$  6.61$  5.82$
|518>   Q  0.6645  7.16$  6.28$  6.8$
|519>   Q  -1.3290  7.65$  6.12$  6.13$
|520>   Q  0.6645  12.58$  14.56$  19.86$
|521>   Q  0.6645  12.97$  13.12$  19.25$
|522>   Q  -1.3290  12.49$  13.87$  19.37$
|523>   Q  0.6645  6.32$  4.91$  12.29$
|524>   Q  0.6645  7.52$  5.97$  12.5$
|525>   Q  -1.3290  7.13$  5.18$  12.35$
|526>   Q  0.6645  17.04$  3.54$  9.5$
|527>   Q  0.6645  18.38$  2.97$  9.89$
|528>   Q  -1.3290  17.76$  3.52$  9.9$
|529>   Q  0.6645  10.26$  4.47$  11.46$
|530>   Q  0.6645  8.73$  4.48$  11.37$
|531>   Q  -1.3290  9.5$  4.38$  11.06$
|532>   Q  0.6645  6.32$  16.02$  7.82$
|533>   Q  0.6645  6.2$  16.07$  6.28$
|534>   Q  -1.3290  6.11$  16.35$  7.06$
|535>   Q  0.6645  1.72$  7.12$  12.4$
|536>   Q  0.6645  2.75$  7.4$  13.48$
|537>   Q  -1.3290  2.4$  6.97$  12.83$
|538>   Q  0.6645  4.28$  5.66$  17.07$
|539>   Q  0.6645  4.72$  7.12$  17.66$
|540>   Q  -1.3290  4.58$  6.25$  17.66$
|541>   Q  0.6645  19.79$  16.32$  5.79$
|542>   Q  0.6645  19.09$  15.52$  6.88$
|543>   Q  -1.3290  19.13$  16.04$  6.23$
|544>   Q  0.6645  13.86$  3.51$  17.85$
|545>   Q  0.6645  13.64$  2.68$  16.69$
|546>   Q  -1.3290  13.49$  3.3$  17.16$
|547>   Q  0.6645  5.58$  18.26$  7.47$
|548>   Q  0.6645  4.86$  19.54$  7.01$
|549>   Q  -1.3290  5.13$  18.98$  7.6$
|550>   Q  0.6645  16.88$  10.74$  17.29$
|551>   Q  0.6645  16.58$  12.21$  17.02$
|552>   Q  -1.3290  16.46$  11.45$  17.39$
|553>   Q  0.6645  5.73$  12.37$  5.38$
|554>   Q  0.6645  6.92$  12.19$  4.3$
|555>   Q  -1.3290  6.53$  12.16$  5.07$
|556>   Q  0.6645  15.11$  10.25$  4.64$
|557>   Q  0.6645  15.76$  10.69$  3.25$
|558>   Q  -1.3290  15.12$  10.44$  3.81$
|559>   Q  0.6645  5.34$  5.96$  14.81$
|560>   Q  0.6645  5.65$  7.21$  13.9$
|561>   Q  -1.3290  5.2$  6.73$  14.46$
|562>   Q  0.6645  7.96$  15.24$  3$
|563>   Q  0.6645  6.81$  15.8$  3.8$
|564>   Q  -1.3290  7.62$  15.79$  3.51$
|565>   Q  0.6645  13.35$  15.38$  17.83$
|566>   Q  0.6645  14.74$  15.86$  18.06$
|567>   Q  -1.3290  13.95$  15.9$  17.76$
|568>   Q  0.6645  12.96$  6.62$  4.49$
|569>   Q  0.6645  12.18$  5.36$  4.5$
|570>   Q  -1.3290  12.73$  5.88$  4.81$
|571>   Q  0.6645  10.73$  9.33$  2.55$
|572>   Q  0.6645  11.82$  9.71$  1.48$
|573>   Q  -1.3290  11.26$  9.19$  1.88$
|574>   Q  0.6645  17.37$  10.76$  11.09$
|575>   Q  0.6645  17.19$  9.22$  10.94$
|576>   Q  -1.3290  17.11$  9.98$  11.33$
|577>   Q  0.6645  7.94$  5.43$  1.61$
|578>   Q  0.6645  8.75$  4.49$  0.68$
|579>   Q  -1.3290  8.65$  5.07$  1.31$
|580>   Q  0.6645  12.79$  11.32$  15.5$
|581>   Q  0.6645  13.85$  10.37$  14.85$
|582>   Q  -1.3290  13.11$  10.57$  15.19$
|583>   Q  0.6645  13.51$  16.96$  15.99$
|584>   Q  0.6645  13.63$  18.52$  15.88$
|585>   Q  -1.3290  13.52$  17.72$  15.59$
|586>   Q  0.6645  5.95$  8.29$  4.77$
|587>   Q  0.6645  5.02$  7.19$  4.24$
|588>   Q  -1.3290  5.24$  7.97$  4.43$
|589>   Q  0.6645  3.07$  16.66$  17.1$
|590>   Q  0.6645  4.34$  16.2$  16.37$
|591>   Q  -1.3290  3.73$  16.15$  16.99$
|592>   Q  0.6645  12.55$  21.28$  9.99$
|593>   Q  0.6645  12$  21.87$  8.7$
|594>   Q  -1.3290  12.48$  21.33$  9.17$
|595>   Q  0.6645  4.5$  12.32$  13.84$
|596>   Q  0.6645  5.08$  11.9$  15.18$
|597>   Q  -1.3290  4.94$  11.8$  14.38$
|598>   Q  0.6645  4.59$  8.89$  2.85$
|599>   Q  0.6645  4.37$  8.66$  1.29$
|600>   Q  -1.3290  4.63$  9.06$  2$
|601>   Q  0.6645  14.87$  17.42$  13.86$
|602>   Q  0.6645  15.16$  17.38$  12.36$
|603>   Q  -1.3290  15.32$  17.19$  13.17$
|604>   Q  0.6645  12.04$  7.31$  19.79$
|605>   Q  0.6645  10.67$  7.34$  20.37$
|606>   Q  -1.3290  11.26$  7.6$  19.85$
|607>   Q  0.6645  4.63$  14.36$  13.97$
|608>   Q  0.6645  3.89$  14.73$  12.72$
|609>   Q  -1.3290  4.1$  14.23$  13.35$
|610>   Q  0.6645  10.23$  5.96$  0.75$
|611>   Q  0.6645  11.24$  7.05$  0.91$
|612>   Q  -1.3290  11.01$  6.29$  0.71$
|613>   Q  0.6645  6.59$  18.89$  4.34$
|614>   Q  0.6645  7.53$  17.67$  4.48$
|615>   Q  -1.3290  7.12$  18.39$  4.72$
|616>   Q  0.6645  19.99$  7.57$  13.84$
|617>   Q  0.6645  20.9$  7.08$  12.8$
|618>   Q  -1.3290  20.71$  7.28$  13.56$
|619>   Q  0.6645  15.94$  2.88$  7.86$
|620>   Q  0.6645  15.64$  1.72$  8.8$
|621>   Q  -1.3290  15.64$  2.55$  8.53$
|622>   Q  0.6645  20.29$  8.83$  6.91$
|623>   Q  0.6645  21.78$  8.99$  6.63$
|624>   Q  -1.3290  21.12$  8.77$  7.07$
|625>   Q  0.6645  9.79$  0.94$  6.22$
|626>   Q  0.6645  8.29$  0.5$  6.39$
|627>   Q  -1.3290  9.15$  0.39$  6.37$
|628>   Q  0.6645  11.32$  2.41$  7.66$
|629>   Q  0.6645  10.21$  1.64$  8.37$
|630>   Q  -1.3290  11$  1.78$  8.16$
|631>   Q  0.6645  5.26$  6.09$  1.4$
|632>   Q  0.6645  6.47$  6.92$  1.83$
|633>   Q  -1.3290  6.06$  6.22$  1.64$
|634>   Q  0.6645  5.44$  16.86$  14.44$
|635>   Q  0.6645  6.35$  15.87$  15.21$
|636>   Q  -1.3290  5.61$  16.18$  14.92$
|637>   Q  0.6645  0.9$  12.68$  6.06$
|638>   Q  0.6645  0.99$  11.99$  7.28$
|639>   Q  -1.3290  1.24$  12.56$  6.77$
|640>   Q  0.6645  16.69$  18.38$  13.04$
|641>   Q  0.6645  17.99$  19.18$  13.3$
|642>   Q  -1.3290  17.35$  18.88$  12.83$
|643>   Q  0.6645  11.51$  5.14$  19.74$
|644>   Q  0.6645  10.33$  5.02$  18.65$
|645>   Q  -1.3290  10.99$  4.76$  19.17$
|646>   Q  0.6645  2.34$  4.31$  16.49$
|647>   Q  0.6645  3.05$  4.63$  15.19$
|648>   Q  -1.3290  3.01$  4.55$  16.02$
|649>   Q  0.6645  19$  10.74$  6.45$
|650>   Q  0.6645  17.78$  10$  6.77$
|651>   Q  -1.3290  18.57$  10.09$  6.74$
|652>   Q  0.6645  14.11$  5.32$  19.83$
|653>   Q  0.6645  13.41$  5.61$  21.22$
|654>   Q  -1.3290  13.65$  5.74$  20.42$
|655>   Q  0.6645  2.06$  10.06$  9.63$
|656>   Q  0.6645  3.53$  9.69$  9.21$
|657>   Q  -1.3290  2.83$  9.71$  9.71$
|658>   Q  0.6645  18.56$  7.14$  4.41$
|659>   Q  0.6645  18.48$  8.71$  4.85$
|660>   Q  -1.3290  18.5$  8$  4.31$
|661> *
|662> 
|663>                          ****END OF INPUT****
================================================================================

                     *******************************
                     * Energy+Gradient Calculation *
                     *******************************

---------------------------------
CARTESIAN COORDINATES (ANGSTROEM)
---------------------------------
  C     10.920000   11.300000    9.010000
  H     11.490000   12.250000    8.740000
  H      9.870000   11.590000    9.180000
  C     11.490000   10.500000   10.170000
  H     11.120000    9.460000   10.390000
  H     12.590000   10.360000    9.970000
  C     11.360000   11.200000   11.530000
  H     11.580000   12.340000   11.520000
  H     12.070000   10.690000   12.230000
  C     10.020000   11.110000   12.150000
  H      9.210000   10.980000   11.340000
  H      9.730000   11.970000   12.700000
  O      9.820000    9.980000   13.100000
  H     10.080000   10.160000   14.020000
  O     10.870000   10.490000    7.770000
  H     10.250000    9.740000    7.940000
  O     13.140000    9.380000    6.800000
  H     12.270000    9.880000    6.960000
  H     13.030000    8.900000    5.950000
  O      9.120000   14.100000    9.960000
  H      8.870000   13.550000    9.210000
  H      9.900000   14.560000    9.710000
  O      9.080000   14.350000   12.970000
  H      9.870000   14.860000   13.150000
  H      9.020000   14.290000   12.010000
  O     13.820000   13.270000   12.570000
  H     13.600000   13.730000   11.780000
  H     14.740000   13.540000   12.680000
  O     13.480000   14.150000    9.980000
  H     14.120000   14.810000    9.760000
  H     12.610000   14.600000    9.750000
  O      7.850000   12.710000    7.830000
  H      7.380000   11.970000    8.270000
  H      7.630000   12.780000    6.900000
  O      9.210000   12.860000   15.210000
  H      9.030000   13.450000   14.450000
  H      8.570000   12.130000   15.100000
  O      8.360000    7.410000   13.320000
  H      9.000000    8.100000   13.060000
  H      8.860000    6.710000   13.810000
  O     14.110000    8.470000   11.760000
  H     14.970000    8.370000   11.230000
  H     14.230000    9.370000   12.000000
  O      7.840000   10.740000   16.170000
  H      7.600000   10.780000   17.100000
  H      8.490000   10.050000   16.100000
  O     14.660000   11.690000    8.930000
  H     14.720000   12.070000    8.020000
  H     14.220000   12.340000    9.500000
  O     15.960000    9.090000    6.280000
  H     15.100000    8.960000    6.570000
  H     16.540000    8.370000    6.570000
  O     13.180000   14.340000   14.920000
  H     13.410000   13.900000   14.080000
  H     12.440000   13.760000   15.240000
  O      6.480000    9.050000   14.190000
  H      7.400000    8.790000   14.170000
  H      6.440000    9.810000   14.790000
  O     12.940000    7.790000    9.290000
  H     13.100000    8.150000   10.120000
  H     13.170000    8.570000    8.750000
  O     10.090000    7.080000    9.950000
  H      9.830000    6.170000   10.250000
  H     11.030000    7.090000    9.890000
  O     11.240000   12.090000    5.480000
  H     10.950000   13.040000    5.430000
  H     10.900000   11.740000    6.320000
  O     11.270000   15.560000    9.030000
  H     11.530000   15.810000    8.140000
  H     11.360000   16.370000    9.520000
  O     15.630000   16.100000    9.070000
  H     15.610000   16.470000    8.160000
  H     16.520000   15.720000    9.270000
  O     13.100000    8.270000    3.880000
  H     13.830000    8.790000    3.520000
  H     12.330000    8.620000    3.390000
  O     10.980000   15.880000   13.960000
  H     10.770000   16.370000   14.790000
  H     11.720000   15.380000   14.230000
  O     16.330000   14.520000   12.980000
  H     17.160000   14.440000   13.490000
  H     16.000000   15.420000   13.130000
  O      8.710000    8.760000    8.040000
  H      7.960000    9.030000    8.580000
  H      9.110000    7.910000    8.410000
  O      6.520000   15.470000    9.720000
  H      6.200000   15.630000   10.670000
  H      7.480000   15.310000    9.780000
  O     10.560000    9.220000   16.040000
  H     11.290000    9.340000   15.350000
  H     10.830000    9.610000   16.850000
  O      7.500000   16.580000   12.700000
  H      8.120000   17.060000   13.170000
  H      7.840000   15.680000   12.690000
  O     15.200000   10.850000   13.280000
  H     15.870000   10.620000   12.630000
  H     14.760000   11.550000   12.890000
  Q      6.920000    1.850000    9.470000
  Q      5.540000    1.330000   10.030000
  Q      6.070000    1.630000    9.420000
  Q     12.240000    2.580000    9.630000
  Q     12.270000    2.690000   11.140000
  Q     12.560000    2.830000   10.390000
  Q     14.110000   12.190000    3.400000
  Q     12.840000   12.840000    2.570000
  Q     13.590000   12.790000    3.000000
  Q     18.270000    9.280000   13.690000
  Q     18.720000    9.060000   15.060000
  Q     18.410000    8.820000   14.330000
  Q      7.780000    7.030000   20.380000
  Q      7.000000    5.780000   19.710000
  Q      7.300000    6.580000   19.770000
  Q     11.580000   12.890000   17.130000
  Q     10.740000   12.700000   15.820000
  Q     11.400000   12.620000   16.340000
  Q      2.500000    7.820000    7.500000
  Q      2.990000    7.590000    6.120000
  Q      2.530000    7.400000    6.780000
  Q      6.880000    4.290000   15.770000
  Q      6.940000    4.490000   14.220000
  Q      6.580000    4.280000   14.970000
  Q     14.650000    5.850000   13.650000
  Q     13.960000    6.760000   12.700000
  Q     14.080000    6.070000   13.080000
  Q      4.890000    8.270000    7.600000
  Q      5.410000    9.640000    8.230000
  Q      4.950000    9.120000    7.740000
  Q      4.310000   13.040000    8.220000
  Q      5.380000   13.720000    9.140000
  Q      4.790000   13.120000    8.910000
  Q     10.490000    3.630000    3.740000
  Q     10.180000    4.750000    2.580000
  Q     10.530000    4.400000    3.320000
  Q     10.020000    6.180000    4.100000
  Q     10.590000    7.240000    5.070000
  Q     10.030000    6.910000    4.510000
  Q     18.100000   11.410000    8.730000
  Q     16.570000   11.550000    9.110000
  Q     17.420000   11.650000    9.220000
  Q     13.320000    2.060000    6.220000
  Q     13.480000    0.610000    5.660000
  Q     13.530000    1.480000    5.640000
  Q     14.460000   11.450000   18.600000
  Q     14.020000   11.240000   20.210000
  Q     13.990000   11.500000   19.360000
  Q     20.870000   10.350000   13.580000
  Q     21.220000    9.260000   12.600000
  Q     20.810000    9.940000   12.860000
  Q      7.730000    2.760000    5.790000
  Q      8.060000    4.270000    6.200000
  Q      8.160000    3.440000    6.140000
  Q      7.970000   19.660000   13.760000
  Q      8.350000   18.830000   14.970000
  Q      8.420000   19.110000   14.170000
  Q     10.450000   21.380000   10.940000
  Q      9.410000   20.490000   10.600000
  Q      9.740000   21.110000   11.060000
  Q     14.480000    2.740000    4.030000
  Q     15.500000    3.730000    4.020000
  Q     14.870000    3.350000    3.680000
  Q     16.470000   13.790000   15.450000
  Q     15.090000   13.950000   15.590000
  Q     15.840000   13.940000   15.920000
  Q     17.030000   10.980000   21.350000
  Q     16.560000   11.550000   19.970000
  Q     16.820000   10.950000   20.520000
  Q      9.210000    8.620000   21.440000
  Q      8.320000    7.940000   22.400000
  Q      8.730000    7.980000   21.700000
  Q      3.600000    3.920000    9.280000
  Q      4.970000    3.410000    9.150000
  Q      4.430000    4.000000    9.320000
  Q     11.210000   17.650000   12.060000
  Q     10.260000   17.780000   10.880000
  Q     11.000000   17.560000   11.240000
  Q     16.110000   14.430000   17.930000
  Q     16.570000   14.750000   19.480000
  Q     16.110000   14.810000   18.740000
  Q      5.360000    1.760000   17.270000
  Q      5.240000    3.110000   16.550000
  Q      5.490000    2.580000   17.150000
  Q      0.550000   14.730000   13.660000
  Q      2.080000   14.870000   13.870000
  Q      1.280000   15.050000   13.980000
  Q     14.520000    3.830000   12.250000
  Q     15.050000    2.870000   11.200000
  Q     14.970000    3.190000   11.970000
  Q      6.340000   10.340000   10.240000
  Q      5.760000   11.590000    9.390000
  Q      6.320000   10.930000    9.590000
  Q      2.490000    9.310000   14.460000
  Q      3.610000   10.280000   13.960000
  Q      2.880000    9.880000   13.920000
  Q      7.760000   16.920000   19.070000
  Q      9.100000   17.370000   18.810000
  Q      8.380000   17.080000   18.540000
  Q     19.460000   12.320000    5.080000
  Q     17.860000   12.410000    5.270000
  Q     18.690000   12.400000    5.540000
  Q      8.340000   14.740000   -0.710000
  Q      8.670000   15.170000    0.810000
  Q      8.200000   15.090000    0.060000
  Q      6.500000    5.540000    4.720000
  Q      5.870000    5.240000    3.170000
  Q      5.900000    5.340000    4.060000
  Q      7.990000    8.660000    3.140000
  Q      6.620000    9.020000    2.660000
  Q      7.390000    8.750000    2.530000
  Q      2.930000   10.950000    3.590000
  Q      2.960000   10.990000    2.010000
  Q      2.710000   11.220000    2.810000
  Q      5.520000   10.790000    1.510000
  Q      5.490000   12.220000    1.840000
  Q      5.870000   11.530000    1.650000
  Q      7.050000    8.670000   19.370000
  Q      7.700000   10.120000   19.290000
  Q      7.080000    9.530000   19.180000
  Q      8.670000   11.530000    3.250000
  Q      7.670000   12.260000    2.240000
  Q      8.300000   12.190000    2.840000
  Q     18.610000    7.230000   11.120000
  Q     19.240000    8.580000   11.320000
  Q     19.030000    7.940000   10.880000
  Q     17.780000   15.770000    4.750000
  Q     17.730000   15.790000    3.200000
  Q     17.430000   15.840000    3.980000
  Q     13.560000   14.610000    3.650000
  Q     14.110000   16.010000    4.040000
  Q     13.590000   15.460000    3.670000
  Q      1.600000   12.830000   12.920000
  Q      1.680000   11.450000   13.790000
  Q      1.420000   12.250000   13.550000
  Q      9.950000    2.890000    5.520000
  Q     11.430000    3.200000    5.420000
  Q     10.750000    2.710000    5.380000
  Q     11.770000   16.490000    2.840000
  Q     10.470000   17.290000    2.080000
  Q     11.060000   17.030000    2.690000
  Q     15.270000   20.040000    8.690000
  Q     15.890000   19.030000    7.650000
  Q     15.270000   19.390000    8.100000
  Q      1.120000    9.800000    4.500000
  Q      1.880000   10.320000    5.750000
  Q      1.220000    9.990000    5.310000
  Q     15.530000    7.200000    2.230000
  Q     16.460000    7.630000    3.280000
  Q     16.110000    7.110000    2.800000
  Q     13.380000    6.260000   15.200000
  Q     13.200000    5.390000   16.430000
  Q     13.030000    6.030000   15.910000
  Q     15.930000   16.860000    4.750000
  Q     15.080000   18.170000    4.720000
  Q     15.270000   17.360000    4.900000
  Q      7.990000   10.420000    0.850000
  Q      9.480000   10.730000    1.130000
  Q      8.810000   10.580000    0.650000
  Q      3.110000    9.840000   17.170000
  Q      1.560000    9.820000   16.950000
  Q      2.270000   10.100000   17.280000
  Q      5.400000   13.320000   20.840000
  Q      6.310000   14.240000   21.740000
  Q      5.560000   13.970000   21.350000
  Q      3.050000   13.590000    6.440000
  Q      4.220000   14.260000    5.850000
  Q      3.860000   13.720000    6.340000
  Q      2.280000   16.580000   11.870000
  Q      3.040000   16.380000   10.640000
  Q      2.940000   16.270000   11.450000
  Q     16.840000    7.190000    8.340000
  Q     16.480000    6.310000    7.180000
  Q     16.950000    6.860000    7.570000
  Q      9.610000   15.270000    5.170000
  Q     11.080000   15.440000    5.180000
  Q     10.380000   15.000000    5.170000
  Q     10.070000   15.110000    2.810000
  Q      9.530000   13.730000    2.380000
  Q      9.750000   14.520000    2.270000
  Q     17.430000   11.610000    1.550000
  Q     17.620000   10.040000    1.430000
  Q     17.190000   10.780000    1.420000
  Q      5.320000    8.480000   15.940000
  Q      5.710000    9.320000   17.210000
  Q      5.210000    8.870000   16.700000
  Q      8.760000   19.950000    7.080000
  Q      7.910000   18.710000    6.610000
  Q      8.470000   19.150000    7.090000
  Q     20.220000    6.940000    9.620000
  Q     21.300000    7.440000    8.590000
  Q     20.960000    6.910000    9.200000
  Q     10.590000   18.890000   14.170000
  Q     12.080000   18.450000   14.220000
  Q     11.410000   18.920000   13.980000
  Q      9.860000   10.990000   18.840000
  Q      9.070000   11.240000   20.250000
  Q      9.210000   11.230000   19.370000
  Q     13.510000    5.970000    9.140000
  Q     13.610000    4.610000    9.650000
  Q     13.940000    5.290000    9.340000
  Q     18.940000   13.150000    7.280000
  Q     18.400000   13.860000    8.480000
  Q     19.010000   13.670000    7.910000
  Q      7.760000   15.390000   17.250000
  Q      8.000000   14.120000   16.530000
  Q      7.540000   14.780000   16.740000
  Q      8.070000    7.390000   10.600000
  Q      6.680000    7.580000   11.330000
  Q      7.220000    7.420000   10.690000
  Q      5.020000    2.060000    4.480000
  Q      5.010000    3.600000    4.650000
  Q      4.680000    2.810000    4.630000
  Q     13.170000    2.110000   13.350000
  Q     11.670000    1.720000   13.810000
  Q     12.340000    1.840000   13.280000
  Q     14.800000   18.170000   10.160000
  Q     13.280000   18.480000   10.740000
  Q     14.180000   18.440000   10.720000
  Q     17.570000    5.460000   12.670000
  Q     17.850000    4.870000   11.210000
  Q     17.830000    5.470000   11.840000
  Q     15.600000   12.920000    4.880000
  Q     16.550000   13.670000    3.880000
  Q     16.300000   13.040000    4.420000
  Q     18.050000   15.550000   10.420000
  Q     17.260000   14.330000   10.940000
  Q     17.630000   14.790000   10.350000
  Q     12.310000   10.760000   18.870000
  Q     11.580000    9.510000   19.030000
  Q     11.690000   10.230000   18.690000
  Q     15.380000    6.480000    9.910000
  Q     16.550000    6.490000   10.810000
  Q     16.050000    6.810000   10.260000
  Q     12.220000   20.660000   12.410000
  Q     12.460000   22.190000   12.180000
  Q     12.420000   21.360000   11.960000
  Q      5.160000   10.950000   19.290000
  Q      4.840000   12.320000   18.540000
  Q      4.960000   11.800000   19.200000
  Q     14.150000   18.690000   19.300000
  Q     13.450000   17.480000   18.470000
  Q     13.500000   18.190000   19.020000
  Q     10.710000   18.040000   16.560000
  Q      9.540000   17.270000   16.980000
  Q     10.090000   17.530000   16.430000
  Q     19.860000   17.120000   10.990000
  Q     18.470000   17.640000   11.410000
  Q     19.030000   17.020000   11.210000
  Q     20.270000   11.480000   11.580000
  Q     19.540000   12.500000   10.630000
  Q     20.170000   12.010000   10.890000
  Q     13.630000    9.320000   16.820000
  Q     13.570000    7.860000   17.010000
  Q     13.940000    8.610000   17.140000
  Q     16.030000    7.660000    0.370000
  Q     14.660000    7.440000   -0.270000
  Q     15.180000    7.730000    0.310000
  Q      0.030000    7.910000   10.540000
  Q      1.210000    8.720000   11.080000
  Q      0.570000    8.220000   11.140000
  Q     18.010000   17.330000    7.110000
  Q     18.440000   18.600000    7.980000
  Q     17.920000   17.960000    7.680000
  Q     10.530000   10.680000    4.590000
  Q      9.350000    9.800000    4.830000
  Q      9.900000   10.220000    4.360000
  Q     10.410000    2.500000   15.740000
  Q     11.700000    3.200000   16.000000
  Q     11.030000    3.000000   15.560000
  Q      8.080000    5.590000   18.090000
  Q      8.890000    5.750000   16.860000
  Q      8.440000    5.330000   17.390000
  Q     18.530000   16.460000   13.050000
  Q     18.070000   16.580000   14.440000
  Q     18.510000   16.210000   13.850000
  Q      4.600000   16.060000    4.680000
  Q      4.710000   14.800000    3.810000
  Q      4.940000   15.340000    4.420000
  Q     11.360000    2.710000   18.750000
  Q     11.870000    1.320000   18.720000
  Q     11.450000    1.940000   19.080000
  Q     15.710000    8.900000   18.060000
  Q     16.500000    9.480000   19.230000
  Q     16.380000    8.980000   18.560000
  Q     10.890000    5.980000   15.690000
  Q     10.290000    7.400000   15.920000
  Q     10.260000    6.550000   15.680000
  Q      8.010000   18.010000   10.240000
  Q      8.680000   18.680000    8.980000
  Q      8.640000   18.350000    9.800000
  Q      3.920000    5.560000   12.410000
  Q      4.260000    4.530000   11.270000
  Q      4.380000    4.990000   11.990000
  Q     11.960000    5.390000   13.050000
  Q     11.420000    4.130000   13.790000
  Q     11.460000    4.730000   13.180000
  Q     16.130000   20.060000   11.800000
  Q     14.780000   20.530000   11.890000
  Q     15.580000   20.650000   11.870000
  Q      2.060000   12.290000   16.680000
  Q      1.670000   13.470000   15.840000
  Q      1.790000   13.060000   16.560000
  Q     12.960000    4.430000    6.520000
  Q     13.390000    3.700000    7.860000
  Q     12.870000    3.940000    7.220000
  Q     12.110000   17.480000    6.370000
  Q     13.380000   16.630000    5.950000
  Q     12.560000   16.750000    6.200000
  Q     18.720000   14.280000   14.640000
  Q     19.050000   12.760000   14.680000
  Q     18.610000   13.490000   14.840000
  Q      3.200000   13.200000   10.380000
  Q      2.710000   11.850000   11.050000
  Q      2.680000   12.680000   10.820000
  Q      5.480000    9.700000   12.680000
  Q      4.430000    9.500000   11.650000
  Q      5.210000    9.630000   11.890000
  Q     10.590000   18.730000    7.060000
  Q     11.680000   19.620000    7.610000
  Q     11.360000   19.060000    7.080000
  Q     16.840000    6.590000   14.220000
  Q     16.760000    5.400000   15.220000
  Q     16.590000    5.830000   14.530000
  Q     13.910000   17.830000    1.240000
  Q     13.770000   16.510000    2.060000
  Q     14.000000   16.980000    1.380000
  Q      5.640000   13.880000   16.680000
  Q      4.340000   14.200000   17.250000
  Q      4.950000   13.660000   17.040000
  Q     15.240000   14.030000    0.410000
  Q     15.260000   13.430000    1.810000
  Q     15.600000   13.660000    1.070000
  Q     12.650000   20.330000    5.780000
  Q     13.810000   20.370000    6.790000
  Q     13.370000   20.640000    6.120000
  Q      4.760000    3.200000   14.080000
  Q      3.480000    2.630000   13.460000
  Q      4.140000    2.620000   13.950000
  Q     14.310000    9.720000    0.680000
  Q     13.960000   11.190000    1.120000
  Q     13.830000   10.460000    0.710000
  Q      7.080000   10.120000    5.510000
  Q      7.330000    8.940000    6.500000
  Q      7.200000    9.320000    5.730000
  Q      5.330000    5.670000    8.530000
  Q      6.500000    6.460000    9.020000
  Q      5.950000    6.220000    8.450000
  Q     20.830000   13.750000   11.890000
  Q     20.030000   15.070000   12.210000
  Q     20.680000   14.490000   12.260000
  Q      5.950000   17.920000   12.730000
  Q      4.400000   17.590000   12.470000
  Q      5.100000   18.000000   12.790000
  Q     17.570000   16.400000   16.720000
  Q     16.340000   16.290000   15.680000
  Q     17.020000   16.630000   16.060000
  Q     11.710000   18.640000    3.580000
  Q     10.880000   19.760000    4.130000
  Q     11.530000   19.440000    3.680000
  Q     18.500000    5.870000    6.390000
  Q     19.820000    5.490000    5.670000
  Q     19.020000    5.370000    5.920000
  Q     13.740000   13.950000    6.290000
  Q     13.260000   12.700000    5.730000
  Q     13.830000   13.190000    6.070000
  Q      4.270000   10.190000    6.300000
  Q      3.790000   11.600000    6.030000
  Q      3.850000   10.780000    5.890000
  Q     12.490000    4.330000    1.200000
  Q     13.850000    3.920000    1.940000
  Q     13.310000    4.130000    1.280000
  Q      9.010000   13.020000   19.010000
  Q     10.010000   14.270000   19.250000
  Q      9.250000   13.850000   19.190000
  Q     10.730000   13.020000    0.910000
  Q     11.870000   12.310000    0.320000
  Q     11.420000   12.570000    0.950000
  Q      8.810000    1.930000   18.030000
  Q      8.760000    3.310000   17.300000
  Q      8.750000    2.450000   17.360000
  Q      8.910000    1.050000   10.330000
  Q      9.120000    2.580000   10.000000
  Q      8.870000    1.760000    9.850000
  Q      7.100000   18.300000   17.390000
  Q      7.340000   19.780000   16.760000
  Q      6.970000   18.990000   16.840000
  Q     18.690000    9.180000   17.650000
  Q     19.940000    9.830000   16.880000
  Q     19.140000    9.500000   16.960000
  Q     14.740000    5.310000    5.370000
  Q     15.910000    5.820000    4.610000
  Q     15.530000    5.550000    5.300000
  Q      8.250000    6.610000    5.820000
  Q      7.160000    6.280000    6.800000
  Q      7.650000    6.120000    6.130000
  Q     12.580000   14.560000   19.860000
  Q     12.970000   13.120000   19.250000
  Q     12.490000   13.870000   19.370000
  Q      6.320000    4.910000   12.290000
  Q      7.520000    5.970000   12.500000
  Q      7.130000    5.180000   12.350000
  Q     17.040000    3.540000    9.500000
  Q     18.380000    2.970000    9.890000
  Q     17.760000    3.520000    9.900000
  Q     10.260000    4.470000   11.460000
  Q      8.730000    4.480000   11.370000
  Q      9.500000    4.380000   11.060000
  Q      6.320000   16.020000    7.820000
  Q      6.200000   16.070000    6.280000
  Q      6.110000   16.350000    7.060000
  Q      1.720000    7.120000   12.400000
  Q      2.750000    7.400000   13.480000
  Q      2.400000    6.970000   12.830000
  Q      4.280000    5.660000   17.070000
  Q      4.720000    7.120000   17.660000
  Q      4.580000    6.250000   17.660000
  Q     19.790000   16.320000    5.790000
  Q     19.090000   15.520000    6.880000
  Q     19.130000   16.040000    6.230000
  Q     13.860000    3.510000   17.850000
  Q     13.640000    2.680000   16.690000
  Q     13.490000    3.300000   17.160000
  Q      5.580000   18.260000    7.470000
  Q      4.860000   19.540000    7.010000
  Q      5.130000   18.980000    7.600000
  Q     16.880000   10.740000   17.290000
  Q     16.580000   12.210000   17.020000
  Q     16.460000   11.450000   17.390000
  Q      5.730000   12.370000    5.380000
  Q      6.920000   12.190000    4.300000
  Q      6.530000   12.160000    5.070000
  Q     15.110000   10.250000    4.640000
  Q     15.760000   10.690000    3.250000
  Q     15.120000   10.440000    3.810000
  Q      5.340000    5.960000   14.810000
  Q      5.650000    7.210000   13.900000
  Q      5.200000    6.730000   14.460000
  Q      7.960000   15.240000    3.000000
  Q      6.810000   15.800000    3.800000
  Q      7.620000   15.790000    3.510000
  Q     13.350000   15.380000   17.830000
  Q     14.740000   15.860000   18.060000
  Q     13.950000   15.900000   17.760000
  Q     12.960000    6.620000    4.490000
  Q     12.180000    5.360000    4.500000
  Q     12.730000    5.880000    4.810000
  Q     10.730000    9.330000    2.550000
  Q     11.820000    9.710000    1.480000
  Q     11.260000    9.190000    1.880000
  Q     17.370000   10.760000   11.090000
  Q     17.190000    9.220000   10.940000
  Q     17.110000    9.980000   11.330000
  Q      7.940000    5.430000    1.610000
  Q      8.750000    4.490000    0.680000
  Q      8.650000    5.070000    1.310000
  Q     12.790000   11.320000   15.500000
  Q     13.850000   10.370000   14.850000
  Q     13.110000   10.570000   15.190000
  Q     13.510000   16.960000   15.990000
  Q     13.630000   18.520000   15.880000
  Q     13.520000   17.720000   15.590000
  Q      5.950000    8.290000    4.770000
  Q      5.020000    7.190000    4.240000
  Q      5.240000    7.970000    4.430000
  Q      3.070000   16.660000   17.100000
  Q      4.340000   16.200000   16.370000
  Q      3.730000   16.150000   16.990000
  Q     12.550000   21.280000    9.990000
  Q     12.000000   21.870000    8.700000
  Q     12.480000   21.330000    9.170000
  Q      4.500000   12.320000   13.840000
  Q      5.080000   11.900000   15.180000
  Q      4.940000   11.800000   14.380000
  Q      4.590000    8.890000    2.850000
  Q      4.370000    8.660000    1.290000
  Q      4.630000    9.060000    2.000000
  Q     14.870000   17.420000   13.860000
  Q     15.160000   17.380000   12.360000
  Q     15.320000   17.190000   13.170000
  Q     12.040000    7.310000   19.790000
  Q     10.670000    7.340000   20.370000
  Q     11.260000    7.600000   19.850000
  Q      4.630000   14.360000   13.970000
  Q      3.890000   14.730000   12.720000
  Q      4.100000   14.230000   13.350000
  Q     10.230000    5.960000    0.750000
  Q     11.240000    7.050000    0.910000
  Q     11.010000    6.290000    0.710000
  Q      6.590000   18.890000    4.340000
  Q      7.530000   17.670000    4.480000
  Q      7.120000   18.390000    4.720000
  Q     19.990000    7.570000   13.840000
  Q     20.900000    7.080000   12.800000
  Q     20.710000    7.280000   13.560000
  Q     15.940000    2.880000    7.860000
  Q     15.640000    1.720000    8.800000
  Q     15.640000    2.550000    8.530000
  Q     20.290000    8.830000    6.910000
  Q     21.780000    8.990000    6.630000
  Q     21.120000    8.770000    7.070000
  Q      9.790000    0.940000    6.220000
  Q      8.290000    0.500000    6.390000
  Q      9.150000    0.390000    6.370000
  Q     11.320000    2.410000    7.660000
  Q     10.210000    1.640000    8.370000
  Q     11.000000    1.780000    8.160000
  Q      5.260000    6.090000    1.400000
  Q      6.470000    6.920000    1.830000
  Q      6.060000    6.220000    1.640000
  Q      5.440000   16.860000   14.440000
  Q      6.350000   15.870000   15.210000
  Q      5.610000   16.180000   14.920000
  Q      0.900000   12.680000    6.060000
  Q      0.990000   11.990000    7.280000
  Q      1.240000   12.560000    6.770000
  Q     16.690000   18.380000   13.040000
  Q     17.990000   19.180000   13.300000
  Q     17.350000   18.880000   12.830000
  Q     11.510000    5.140000   19.740000
  Q     10.330000    5.020000   18.650000
  Q     10.990000    4.760000   19.170000
  Q      2.340000    4.310000   16.490000
  Q      3.050000    4.630000   15.190000
  Q      3.010000    4.550000   16.020000
  Q     19.000000   10.740000    6.450000
  Q     17.780000   10.000000    6.770000
  Q     18.570000   10.090000    6.740000
  Q     14.110000    5.320000   19.830000
  Q     13.410000    5.610000   21.220000
  Q     13.650000    5.740000   20.420000
  Q      2.060000   10.060000    9.630000
  Q      3.530000    9.690000    9.210000
  Q      2.830000    9.710000    9.710000
  Q     18.560000    7.140000    4.410000
  Q     18.480000    8.710000    4.850000
  Q     18.500000    8.000000    4.310000

----------------------------
CARTESIAN COORDINATES (A.U.)
----------------------------
  NO LB      ZA    FRAG     MASS         X           Y           Z
   0 C     6.0000    0    12.011   20.635809   21.353905   17.026432
   1 H     1.0000    0     1.008   21.712953   23.149145   16.516206
   2 H     1.0000    0     1.008   18.651597   21.901926   17.347686
   3 C     6.0000    0    12.011   21.712953   19.842124   19.218515
   4 H     1.0000    0     1.008   21.013755   17.876809   19.634255
   5 H     1.0000    0     1.008   23.791652   19.577563   18.840570
   6 C     6.0000    0    12.011   21.467289   21.164933   21.788542
   7 H     1.0000    0     1.008   21.883029   23.319220   21.769645
   8 H     1.0000    0     1.008   22.808994   20.201172   23.111351
   9 C     6.0000    0    12.011   18.935056   20.994857   22.960173
  10 H     1.0000    0     1.008   17.404378   20.749193   21.429494
  11 H     1.0000    0     1.008   18.387035   22.620022   23.999522
  12 O     8.0000    0    15.999   18.557111   18.859467   24.755412
  13 H     1.0000    0     1.008   19.048439   19.199618   26.493960
  14 O     8.0000    0    15.999   20.541323   19.823227   14.683172
  15 H     1.0000    0     1.008   19.369693   18.405933   15.004426
  16 O     8.0000    0    15.999   24.831001   17.725631   12.850138
  17 H     1.0000    0     1.008   23.186940   18.670494   13.152494
  18 H     1.0000    0     1.008   24.623132   16.818563   11.243870
  19 O     8.0000    0    15.999   17.234302   26.645138   18.821672
  20 H     1.0000    0     1.008   16.761871   25.605789   17.404378
  21 H     1.0000    0     1.008   18.708289   27.514413   18.349241
  22 O     8.0000    0    15.999   17.158713   27.117570   24.509748
  23 H     1.0000    0     1.008   18.651597   28.081330   24.849899
  24 H     1.0000    0     1.008   17.045330   27.004186   22.695611
  25 O     8.0000    0    15.999   26.116015   25.076666   23.753858
  26 H     1.0000    0     1.008   25.700275   25.945940   22.260974
  27 H     1.0000    0     1.008   27.854563   25.586892   23.961727
  28 O     8.0000    0    15.999   25.473508   26.739625   18.859467
  29 H     1.0000    0     1.008   26.682933   27.986844   18.443727
  30 H     1.0000    0     1.008   23.829447   27.590002   18.424830
  31 O     8.0000    0    15.999   14.834350   24.018419   14.796556
  32 H     1.0000    0     1.008   13.946179   22.620022   15.628035
  33 H     1.0000    0     1.008   14.418610   24.150700   13.039110
  34 O     8.0000    0    15.999   17.404378   24.301878   28.742734
  35 H     1.0000    0     1.008   17.064227   25.416817   27.306543
  36 H     1.0000    0     1.008   16.194953   22.922378   28.534865
  37 O     8.0000    0    15.999   15.798110   14.002871   25.171152
  38 H     1.0000    0     1.008   17.007535   15.306782   24.679823
  39 H     1.0000    0     1.008   16.742974   12.680062   26.097118
  40 O     8.0000    0    15.999   26.664036   16.005980   22.223179
  41 H     1.0000    0     1.008   28.289200   15.817008   21.221624
  42 H     1.0000    0     1.008   26.890803   17.706734   22.676714
  43 O     8.0000    0    15.999   14.815453   20.295659   30.556872
  44 H     1.0000    0     1.008   14.361919   20.371248   32.314317
  45 H     1.0000    0     1.008   16.043775   18.991748   30.424591
  46 O     8.0000    0    15.999   27.703385   22.090899   16.875254
  47 H     1.0000    0     1.008   27.816769   22.808994   15.155604
  48 H     1.0000    0     1.008   26.871906   23.319220   17.952398
  49 O     8.0000    0    15.999   30.160029   17.177611   11.867480
  50 H     1.0000    0     1.008   28.534865   16.931946   12.415501
  51 H     1.0000    0     1.008   31.256070   15.817008   12.415501
  52 O     8.0000    0    15.999   24.906590   27.098673   28.194714
  53 H     1.0000    0     1.008   25.341227   26.267193   26.607344
  54 H     1.0000    0     1.008   23.508193   26.002632   28.799426
  55 O     8.0000    0    15.999   12.245425   17.102022   26.815214
  56 H     1.0000    0     1.008   13.983973   16.610693   26.777419
  57 H     1.0000    0     1.008   12.169836   18.538213   27.949050
  58 O     8.0000    0    15.999   24.453056   14.720967   17.555556
  59 H     1.0000    0     1.008   24.755412   15.401268   19.124028
  60 H     1.0000    0     1.008   24.887693   16.194953   16.535104
  61 O     8.0000    0    15.999   19.067337   13.379261   18.802775
  62 H     1.0000    0     1.008   18.576008   11.659610   19.369693
  63 H     1.0000    0     1.008   20.843679   13.398158   18.689391
  64 O     8.0000    0    15.999   21.240522   22.846789   10.355699
  65 H     1.0000    0     1.008   20.692501   24.642029   10.261213
  66 H     1.0000    0     1.008   20.598015   22.185385   11.943069
  67 O     8.0000    0    15.999   21.297214   29.404139   17.064227
  68 H     1.0000    0     1.008   21.788542   29.876570   15.382371
  69 H     1.0000    0     1.008   21.467289   30.934817   17.990193
  70 O     8.0000    0    15.999   29.536419   30.424591   17.139816
  71 H     1.0000    0     1.008   29.498625   31.123789   15.420165
  72 H     1.0000    0     1.008   31.218276   29.706495   17.517761
  73 O     8.0000    0    15.999   24.755412   15.628035    7.332137
  74 H     1.0000    0     1.008   26.134912   16.610693    6.651836
  75 H     1.0000    0     1.008   23.300323   16.289439    6.406172
  76 O     8.0000    0    15.999   20.749193   30.008851   26.380577
  77 H     1.0000    0     1.008   20.352350   30.934817   27.949050
  78 H     1.0000    0     1.008   22.147590   29.063988   26.890803
  79 O     8.0000    0    15.999   30.859228   27.438823   24.528645
  80 H     1.0000    0     1.008   32.427700   27.287645   25.492406
  81 H     1.0000    0     1.008   30.235618   29.139577   24.812104
  82 O     8.0000    0    15.999   16.459515   16.554001   15.193398
  83 H     1.0000    0     1.008   15.042220   17.064227   16.213850
  84 H     1.0000    0     1.008   17.215405   14.947734   15.892597
  85 O     8.0000    0    15.999   12.321014   29.234063   18.368138
  86 H     1.0000    0     1.008   11.716302   29.536419   20.163378
  87 H     1.0000    0     1.008   14.135151   28.931707   18.481522
  88 O     8.0000    0    15.999   19.955508   17.423275   30.311207
  89 H     1.0000    0     1.008   21.335008   17.650042   29.007296
  90 H     1.0000    0     1.008   20.465734   18.160268   31.841885
  91 O     8.0000    0    15.999   14.172946   31.331659   23.999522
  92 H     1.0000    0     1.008   15.344576   32.238728   24.887693
  93 H     1.0000    0     1.008   14.815453   29.630906   23.980625
  94 O     8.0000    0    15.999   28.723837   20.503529   25.095563
  95 H     1.0000    0     1.008   29.989954   20.068892   23.867241
  96 H     1.0000    0     1.008   27.892358   21.826337   24.358570
  97 Q     0.6645    0     0.000   13.076905    3.495993   17.895706
  98 Q     0.6645    0     0.000   10.469083    2.513336   18.953953
  99 Q    -1.3290    0     0.000   11.470638    3.080254   17.801220
 100 Q     0.6645    0     0.000   23.130248    4.875493   18.198063
 101 Q     0.6645    0     0.000   23.186940    5.083363   21.051549
 102 Q    -1.3290    0     0.000   23.734960    5.347925   19.634255
 103 Q     0.6645    0     0.000   26.664036   23.035762    6.425069
 104 Q     0.6645    0     0.000   24.264084   24.264084    4.856596
 105 Q    -1.3290    0     0.000   25.681378   24.169597    5.669178
 106 Q     0.6645    0     0.000   34.525296   17.536659   25.870351
 107 Q     0.6645    0     0.000   35.375673   17.120919   28.459276
 108 Q    -1.3290    0     0.000   34.789858   16.667385   27.079775
 109 Q     0.6645    0     0.000   14.702069   13.284775   38.512619
 110 Q     0.6645    0     0.000   13.228083   10.922617   37.246502
 111 Q    -1.3290    0     0.000   13.795001   12.434398   37.359886
 112 Q     0.6645    0     0.000   21.883029   24.358570   32.371009
 113 Q     0.6645    0     0.000   20.295659   23.999522   29.895467
 114 Q    -1.3290    0     0.000   21.542878   23.848344   30.878125
 115 Q     0.6645    0     0.000    4.724315   14.777658   14.172946
 116 Q     0.6645    0     0.000    5.650281   14.343021   11.565124
 117 Q    -1.3290    0     0.000    4.781007   13.983973   12.812343
 118 Q     0.6645    0     0.000   13.001316    8.106925   29.800981
 119 Q     0.6645    0     0.000   13.114699    8.484870   26.871906
 120 Q    -1.3290    0     0.000   12.434398    8.088028   28.289200
 121 Q     0.6645    0     0.000   27.684488   11.054898   25.794762
 122 Q     0.6645    0     0.000   26.380577   12.774549   23.999522
 123 Q    -1.3290    0     0.000   26.607344   11.470638   24.717618
 124 Q     0.6645    0     0.000    9.240761   15.628035   14.361919
 125 Q     0.6645    0     0.000   10.223418   18.216960   15.552446
 126 Q    -1.3290    0     0.000    9.354144   17.234302   14.626480
 127 Q     0.6645    0     0.000    8.144720   24.642029   15.533549
 128 Q     0.6645    0     0.000   10.166727   25.927043   17.272097
 129 Q    -1.3290    0     0.000    9.051788   24.793207   16.837460
 130 Q     0.6645    0     0.000   19.823227    6.859706    7.067576
 131 Q     0.6645    0     0.000   19.237412    8.976199    4.875493
 132 Q    -1.3290    0     0.000   19.898816    8.314795    6.273891
 133 Q     0.6645    0     0.000   18.935056   11.678508    7.747877
 134 Q     0.6645    0     0.000   20.012200   13.681617    9.580911
 135 Q    -1.3290    0     0.000   18.953953   13.058008    8.522665
 136 Q     0.6645    0     0.000   34.204043   21.561775   16.497309
 137 Q     0.6645    0     0.000   31.312762   21.826337   17.215405
 138 Q    -1.3290    0     0.000   32.919029   22.015309   17.423275
 139 Q     0.6645    0     0.000   25.171152    3.892836   11.754097
 140 Q     0.6645    0     0.000   25.473508    1.152733   10.695850
 141 Q    -1.3290    0     0.000   25.567995    2.796795   10.658055
 142 Q     0.6645    0     0.000   27.325440   21.637364   35.148906
 143 Q     0.6645    0     0.000   26.493960   21.240522   38.191365
 144 Q    -1.3290    0     0.000   26.437269   21.731851   36.585098
 145 Q     0.6645    0     0.000   39.438584   19.558665   25.662481
 146 Q     0.6645    0     0.000   40.099989   17.498864   23.810549
 147 Q    -1.3290    0     0.000   39.325201   18.783878   24.301878
 148 Q     0.6645    0     0.000   14.607583    5.215644   10.941514
 149 Q     0.6645    0     0.000   15.231193    8.069131   11.716302
 150 Q    -1.3290    0     0.000   15.420165    6.500658   11.602918
 151 Q     0.6645    0     0.000   15.061117   37.152016   26.002632
 152 Q     0.6645    0     0.000   15.779213   35.583543   28.289200
 153 Q    -1.3290    0     0.000   15.911494   36.112666   26.777419
 154 Q     0.6645    0     0.000   19.747638   40.402345   20.673604
 155 Q     0.6645    0     0.000   17.782323   38.720488   20.031097
 156 Q    -1.3290    0     0.000   18.405933   39.892119   20.900371
 157 Q     0.6645    0     0.000   27.363234    5.177850    7.615596
 158 Q     0.6645    0     0.000   29.290755    7.048678    7.596699
 159 Q    -1.3290    0     0.000   28.100228    6.330583    6.954192
 160 Q     0.6645    0     0.000   31.123789   26.059323   29.196269
 161 Q     0.6645    0     0.000   28.515967   26.361680   29.460830
 162 Q    -1.3290    0     0.000   29.933262   26.342782   30.084440
 163 Q     0.6645    0     0.000   32.182036   20.749193   40.345653
 164 Q     0.6645    0     0.000   31.293865   21.826337   37.737831
 165 Q    -1.3290    0     0.000   31.785194   20.692501   38.777180
 166 Q     0.6645    0     0.000   17.404378   16.289439   40.515728
 167 Q     0.6645    0     0.000   15.722521   15.004426   42.329865
 168 Q    -1.3290    0     0.000   16.497309   15.080015   41.007057
 169 Q     0.6645    0     0.000    6.803014    7.407726   17.536659
 170 Q     0.6645    0     0.000    9.391939    6.443966   17.290994
 171 Q    -1.3290    0     0.000    8.371487    7.558905   17.612248
 172 Q     0.6645    0     0.000   21.183830   33.353666   22.790097
 173 Q     0.6645    0     0.000   19.388590   33.599331   20.560220
 174 Q    -1.3290    0     0.000   20.786987   33.183591   21.240522
 175 Q     0.6645    0     0.000   30.443488   27.268748   33.882790
 176 Q     0.6645    0     0.000   31.312762   27.873460   36.811865
 177 Q    -1.3290    0     0.000   30.443488   27.986844   35.413468
 178 Q     0.6645    0     0.000   10.128932    3.325918   32.635570
 179 Q     0.6645    0     0.000    9.902165    5.877048   31.274968
 180 Q    -1.3290    0     0.000   10.374596    4.875493   32.408803
 181 Q     0.6645    0     0.000    1.039349   27.835666   25.813659
 182 Q     0.6645    0     0.000    3.930630   28.100228   26.210501
 183 Q    -1.3290    0     0.000    2.418849   28.440378   26.418371
 184 Q     0.6645    0     0.000   27.438823    7.237651   23.149145
 185 Q     0.6645    0     0.000   28.440378    5.423514   21.164933
 186 Q    -1.3290    0     0.000   28.289200    6.028226   22.620022
 187 Q     0.6645    0     0.000   11.980864   19.539768   19.350796
 188 Q     0.6645    0     0.000   10.884823   21.901926   17.744528
 189 Q    -1.3290    0     0.000   11.943069   20.654707   18.122474
 190 Q     0.6645    0     0.000    4.705418   17.593350   27.325440
 191 Q     0.6645    0     0.000    6.821911   19.426385   26.380577
 192 Q    -1.3290    0     0.000    5.442411   18.670494   26.304988
 193 Q     0.6645    0     0.000   14.664275   31.974166   36.037077
 194 Q     0.6645    0     0.000   17.196508   32.824543   35.545749
 195 Q    -1.3290    0     0.000   15.835905   32.276522   35.035523
 196 Q     0.6645    0     0.000   36.774071   23.281426    9.599809
 197 Q     0.6645    0     0.000   33.750509   23.451501    9.958857
 198 Q    -1.3290    0     0.000   35.318981   23.432604   10.469083
 199 Q     0.6645    0     0.000   15.760316   27.854563   -1.341706
 200 Q     0.6645    0     0.000   16.383926   28.667145    1.530678
 201 Q    -1.3290    0     0.000   15.495754   28.515967    0.113384
 202 Q     0.6645    0     0.000   12.283220   10.469083    8.919507
 203 Q     0.6645    0     0.000   11.092692    9.902165    5.990432
[...]
 344   Q   :    0.259649226    0.046905288   -0.065894466
 345   Q   :   -0.163243681    0.197176488    0.063388187
 346   Q   :   -0.082601565   -0.236930000   -0.006383955
 347   Q   :    0.009810256   -0.141376970    0.219274848
 348   Q   :   -0.232114516    0.175232773   -0.067219004
 349   Q   :    0.219918392   -0.031106089   -0.157130408
 350   Q   :   -0.117664147    0.235007305   -0.111099277
 351   Q   :   -0.135676338   -0.239865011   -0.048710484
 352   Q   :    0.249001115    0.003442225    0.163931847
 353   Q   :    0.282525740   -0.028483709    0.007896988
 354   Q   :   -0.172058166   -0.107362950   -0.221487103
 355   Q   :   -0.110764502    0.132277342    0.202275869
 356   Q   :   -0.165007208   -0.091076691   -0.207319751
 357   Q   :    0.241520303    0.196218947   -0.042274881
 358   Q   :   -0.087236177   -0.098349777    0.244303492
 359   Q   :    0.031669768   -0.197211549   -0.184235499
 360   Q   :    0.172229450    0.197530495    0.086295972
 361   Q   :   -0.205757813    0.003847599    0.105245146
 362   Q   :    0.230196449    0.155359023    0.096772287
 363   Q   :   -0.186813623   -0.139685063    0.173393788
 364   Q   :   -0.039332247   -0.024806221   -0.263906300
 365   Q   :   -0.213476746   -0.197999838    0.075375157
 366   Q   :    0.243617023    0.058785637    0.166753340
 367   Q   :   -0.032732007    0.135491843   -0.243271161
 368   Q   :   -0.112443776    0.098858349    0.253213010
 369   Q   :    0.167346877    0.167592436   -0.177569994
 370   Q   :   -0.065042613   -0.266520951   -0.068864289
 371   Q   :   -0.010599774    0.096140960   -0.266767563
 372   Q   :   -0.164233701    0.142961606    0.188353528
 373   Q   :    0.182611134   -0.228958966    0.073221592
 374   Q   :   -0.127976856    0.247329608    0.080858782
 375   Q   :   -0.089013148   -0.175604621   -0.207324411
 376   Q   :    0.214582197   -0.073128834    0.121401891
 377   Q   :   -0.012546558    0.244704875   -0.137969092
 378   Q   :    0.165361254   -0.218006171   -0.153564123
 379   Q   :   -0.150011422   -0.033784994    0.287495303
 380   Q   :   -0.224804553   -0.009803154   -0.159168428
 381   Q   :    0.025626007    0.170639818    0.217274155
 382   Q   :    0.199665587   -0.168473793   -0.057259838
 383   Q   :    0.211291872   -0.184190975    0.012754898
 384   Q   :    0.017177256    0.232810744    0.073559476
 385   Q   :   -0.224382263   -0.058059176   -0.091380433
 386   Q   :   -0.225714158   -0.117564976    0.146125402
 387   Q   :    0.009141714    0.096298373   -0.224798086
 388   Q   :    0.210639546    0.020815195    0.083782779
 389   Q   :   -0.158510121    0.180527157    0.134558093
 390   Q   :   -0.055899284   -0.147655722   -0.220315354
 391   Q   :    0.203145431   -0.037827707    0.088973367
 392   Q   :    0.175527193    0.233688683   -0.035712250
 393   Q   :    0.003375056   -0.182761780    0.200639540
 394   Q   :   -0.176301157   -0.046678648   -0.159315136
 395   Q   :    0.192735107   -0.243570891   -0.035352579
 396   Q   :   -0.310048472   -0.067824758    0.012360945
 397   Q   :    0.112975990    0.314339675    0.020843234
 398   Q   :    0.102237517   -0.287889626    0.018730959
 399   Q   :   -0.035130016    0.129742282   -0.263216911
 400   Q   :   -0.064962150    0.161345906    0.242912290
 401   Q   :    0.040464936    0.146330791   -0.228561847
 402   Q   :    0.170904810   -0.082765941    0.196484870
 403   Q   :   -0.212189008   -0.061713626    0.037322190
 404   Q   :   -0.129113751    0.208951994    0.043745940
 405   Q   :    0.259775553   -0.035675526   -0.076818961
 406   Q   :   -0.125648472   -0.184399605    0.027829554
 407   Q   :    0.038720409    0.279624121   -0.080685439
 408   Q   :    0.147773197   -0.229821455   -0.058728054
 409   Q   :   -0.180165364   -0.066195716    0.143325667
 410   Q   :    0.173235200    0.164978763   -0.145186234
 411   Q   :    0.016746698   -0.274050384    0.067210958
 412   Q   :   -0.192914804    0.113449675    0.077890275
 413   Q   :    0.067795354    0.024308097    0.268609719
 414   Q   :   -0.288587378   -0.046290058   -0.073297205
 415   Q   :    0.210145761    0.025122774   -0.189303559
 416   Q   :   -0.263746967   -0.109157221    0.003247130
 417   Q   :    0.089072882    0.195855194    0.189089486
 418   Q   :    0.175417563   -0.078850378   -0.187650700
 419   Q   :    0.085470051    0.240815505   -0.096107067
 420   Q   :    0.068527509   -0.148899827    0.259534309
 421   Q   :   -0.151466696   -0.099682986   -0.157188548
 422   Q   :   -0.036566338    0.279642338   -0.028915753
 423   Q   :   -0.085181179   -0.129180725    0.225210428
 424   Q   :    0.121270614   -0.141973564   -0.203656165
 425   Q   :    0.260514447    0.092812238   -0.149911909
 426   Q   :   -0.184178729    0.182746286    0.063946605
 427   Q   :   -0.079601528   -0.277448093    0.079110146
 428   Q   :   -0.144421678    0.130430236   -0.228972517
 429   Q   :   -0.120770831   -0.073264410    0.248841593
 430   Q   :    0.269329837   -0.056685702   -0.027083629
 431   Q   :   -0.243243548   -0.110685513   -0.099047836
 432   Q   :    0.134335820   -0.101676609    0.227268109
 433   Q   :    0.105538057    0.220232545   -0.132807599
 434   Q   :    0.184072621    0.197771647    0.028160571
 435   Q   :   -0.255572626    0.020316714   -0.196210075
 436   Q   :    0.066405572   -0.220542162    0.166796407
 437   Q   :    0.145625405   -0.206099234    0.004060506
 438   Q   :    0.051661175    0.250071747    0.149388261
 439   Q   :   -0.193419871   -0.038352941   -0.155521553
 440   Q   :   -0.035790851    0.273708565   -0.067663779
 441   Q   :    0.032077116   -0.106523569    0.239105269
 442   Q   :    0.005694817   -0.168110301   -0.161593655
 443   Q   :   -0.210900279   -0.184709973    0.032643074
 444   Q   :    0.195659094    0.075422533    0.196814340
 445   Q   :    0.011846278    0.105528401   -0.232974524
 446   Q   :    0.035944394   -0.254773025   -0.130130984
 447   Q   :   -0.213966646    0.173220426   -0.027219599
 448   Q   :    0.179671341    0.086438253    0.162025901
 449   Q   :    0.277411277   -0.031032213   -0.023618921
 450   Q   :   -0.208800652   -0.134604577   -0.102893432
 451   Q   :   -0.072202016    0.181268582    0.123669099
 452   Q   :    0.159541614   -0.078801805    0.193739139
 453   Q   :   -0.226153638   -0.122845297   -0.130296407
 454   Q   :    0.062727605    0.205177808   -0.053733418
 455   Q   :    0.059488104   -0.289037334   -0.015027641
 456   Q   :   -0.227753749    0.092912268    0.162318920
 457   Q   :    0.174805100    0.204440772   -0.142399520
 458   Q   :   -0.150240240    0.173742822    0.140553645
 459   Q   :    0.280025355    0.061993775   -0.086295694
 460   Q   :   -0.125985119   -0.241514517   -0.058916431
 461   Q   :   -0.051941670    0.319263186    0.084757994
 462   Q   :   -0.205822777   -0.156705413   -0.122364498
 463   Q   :    0.256688312   -0.157285100    0.040830506
 464   Q   :    0.145188100   -0.183364116    0.144756880
 465   Q   :   -0.012205188    0.288980413    0.057400265
 466   Q   :   -0.124225618   -0.105715008   -0.209472722
 467   Q   :   -0.289216542    0.059082880   -0.013690829
 468   Q   :    0.147282282   -0.061254370    0.200498433
 469   Q   :    0.135371280    0.000349801   -0.192900661
 470   Q   :   -0.056134323   -0.236098262   -0.057899922
 471   Q   :    0.250804845    0.130138642    0.016872379
 472   Q   :   -0.199525510    0.119889945    0.037497199
 473   Q   :   -0.253107022    0.162711046   -0.034750964
 474   Q   :    0.160669538   -0.085206964   -0.251489275
 475   Q   :    0.085642540   -0.077697250    0.278213760
 476   Q   :    0.026353516   -0.168760106    0.239760639
 477   Q   :    0.017080439    0.266374123   -0.003692339
 478   Q   :   -0.050134207   -0.106537594   -0.231728180
 479   Q   :    0.014429666   -0.228611281    0.170870682
 480   Q   :    0.075417626    0.236895416    0.051737183
 481   Q   :   -0.086977019   -0.018814130   -0.220433174
 482   Q   :    0.049564889   -0.188126308    0.165828344
 483   Q   :    0.134287264    0.246300492   -0.016845367
 484   Q   :   -0.192897080   -0.056467308   -0.148205998
 485   Q   :   -0.114889202   -0.086708884    0.210978149
 486   Q   :    0.259125450    0.107221726   -0.017419757
 487   Q   :   -0.138178180   -0.019113201   -0.183691223
 488   Q   :   -0.280504864   -0.093150139    0.017215709
 489   Q   :    0.123493367    0.086977144   -0.245858646
 490   Q   :    0.160938152   -0.001083704    0.234803370
 491   Q   :    0.199956732    0.182135223   -0.091961716
 492   Q   :   -0.146149826    0.070963031    0.212108223
 493   Q   :   -0.044533480   -0.234905436   -0.113030134
 494   Q   :    0.040042456    0.235132437    0.170470708
 495   Q   :    0.131652167   -0.191390991   -0.029514445
 496   Q   :   -0.178652087   -0.037237864   -0.137349543
 497   Q   :   -0.248832305   -0.082769403   -0.007314372
 498   Q   :    0.099923145    0.215689643    0.046785645
 499   Q   :    0.149199544   -0.138142457   -0.041839047
 500   Q   :   -0.250915525   -0.003044381   -0.150868473
 501   Q   :    0.220795419   -0.214810403   -0.012440589
 502   Q   :    0.037268593    0.210028667    0.153898570
 503   Q   :    0.225747000    0.038205319    0.121153521
 504   Q   :   -0.250264674    0.037725278    0.110486182
 505   Q   :    0.030062070   -0.080729801   -0.240690016
 506   Q   :    0.077119547   -0.117696874    0.228055714
 507   Q   :    0.039215752   -0.111253874   -0.282282746
 508   Q   :   -0.112414612    0.220613404    0.047606048
 509   Q   :   -0.253470015    0.063343406   -0.146301555
 510   Q   :    0.098123730    0.154227641    0.218932347
 511   Q   :    0.151045622   -0.213178609   -0.064654559
 512   Q   :   -0.080050920   -0.158249914   -0.179669230
 513   Q   :    0.037045259    0.259906562   -0.005786601
 514   Q   :    0.049084865   -0.101374623    0.193014295
 515   Q   :    0.237336981    0.092741718   -0.148030921
 516   Q   :   -0.005095654   -0.166225696    0.221897303
 517   Q   :   -0.219727184    0.077205597   -0.076090366
 518   Q   :    0.159978900    0.070562327    0.267189276
 519   Q   :    0.073977378   -0.265379011   -0.185538609
 520   Q   :   -0.229955419    0.193958938   -0.074263193
 521   Q   :    0.144678505   -0.215047581   -0.061969662
 522   Q   :   -0.084264483    0.180618951   -0.218570567
 523   Q   :   -0.061445482    0.045672161    0.281651942
 524   Q   :    0.161398819   -0.240463919   -0.046823601
 525   Q   :    0.055894534    0.244911378   -0.122697470
 526   Q   :   -0.206884360   -0.006099222    0.162997406
 527   Q   :   -0.243073046    0.068017771    0.080917400
 528   Q   :    0.104057920    0.011495456   -0.244864671
 529   Q   :    0.126858665   -0.075245713    0.161378020
 530   Q   :    0.001265095   -0.055007396    0.273017304
 531   Q   :    0.188357676    0.076534390   -0.149795703
 532   Q   :   -0.187490560   -0.021386521   -0.118784670
 533   Q   :    0.051365636   -0.247660831    0.105106709
 534   Q   :    0.152065971    0.136825374   -0.185415228
 535   Q   :   -0.204734360    0.107142120    0.073370237
 536   Q   :    0.103831452   -0.210379298   -0.185465833
 537   Q   :   -0.254886175   -0.001791017    0.085554207
 538   Q   :    0.154726871    0.211069933    0.090957977
 539   Q   :   -0.242954035   -0.213414876    0.036365820
 540   Q   :    0.241518882   -0.010205019    0.096847077
 541   Q   :    0.000701949    0.216746740   -0.141995537
 542   Q   :    0.063673787    0.237877562   -0.110243858
 543   Q   :   -0.208366745   -0.189970944   -0.113444518
 544   Q   :    0.141395013   -0.047556473    0.227895780
 545   Q   :   -0.152354389    0.055781657    0.213224768
 546   Q   :    0.170238208    0.175114069   -0.107950768
 547   Q   :   -0.023524015   -0.231569161   -0.116110851
 548   Q   :    0.085688705    0.246852418   -0.066092773
 549   Q   :    0.025263749   -0.238531552   -0.127149535
 550   Q   :   -0.107248060   -0.012391791    0.194917930
 551   Q   :   -0.232625877    0.107565895    0.092008284
 552   Q   :    0.022974316   -0.186535488   -0.205376171
 553   Q   :    0.198226390    0.075764061    0.115034495
 554   Q   :   -0.076135318    0.229261097    0.089485209
 555   Q   :    0.258206084   -0.059700943   -0.106994352
 556   Q   :   -0.173560557   -0.165602378    0.010741743
 557   Q   :   -0.005310510   -0.229586465    0.131542438
 558   Q   :    0.035156511    0.259954055    0.104344096
 559   Q   :   -0.032882331   -0.029246607   -0.232214643
 560   Q   :    0.229276225    0.086768293    0.097750547
 561   Q   :   -0.075897130   -0.267914859   -0.070235316
 562   Q   :   -0.161284414    0.176951139   -0.023466439
 563   Q   :   -0.229311661    0.197006915    0.025284631
 564   Q   :    0.171373320    0.029936831   -0.183662592
 565   Q   :    0.043680593   -0.217124214    0.168706216
 566   Q   :    0.005612866   -0.003741537    0.290656756
 567   Q   :   -0.171291868    0.180630112   -0.137985362
 568   Q   :    0.166195455   -0.173880829   -0.161041571
 569   Q   :   -0.133506822    0.153409858   -0.149656116
 570   Q   :    0.049722041    0.045068811    0.302838499
 571   Q   :    0.094938377   -0.201391723   -0.151424182
 572   Q   :   -0.019495468   -0.054021779    0.242001332
 573   Q   :   -0.092835747   -0.142122099   -0.232726047
 574   Q   :    0.101817729    0.190311290   -0.020627954
 575   Q   :   -0.141548115    0.080773333    0.209226445
 576   Q   :   -0.048847189    0.065689539   -0.255281934
 577   Q   :    0.186884417   -0.148148186    0.048821913
 578   Q   :    0.265803586   -0.110622787   -0.005198158
 579   Q   :   -0.200068868   -0.104400940    0.200779423
 580   Q   :   -0.070485380    0.209190875   -0.196839646
 581   Q   :    0.196301702    0.049886656    0.215308020
 582   Q   :   -0.063205368    0.186726335   -0.215021993
 583   Q   :   -0.128822508   -0.241237107   -0.001948369
 584   Q   :   -0.259954222   -0.099421661    0.015432285
 585   Q   :    0.069719993    0.285434187    0.078082764
 586   Q   :    0.202858362   -0.184693929   -0.101852042
 587   Q   :   -0.206427692    0.182624137   -0.156566447
 588   Q   :    0.117815196   -0.221528904   -0.079321712
 589   Q   :    0.081432588    0.044980931    0.234032231
 590   Q   :   -0.263535616    0.104047925    0.080803778
 591   Q   :    0.059061472   -0.065074329   -0.309279335
 592   Q   :    0.210691250   -0.044920543    0.230940460
 593   Q   :    0.131067526    0.116975020   -0.273087375
 594   Q   :    0.012615640   -0.260828970    0.070746309
 595   Q   :   -0.149257333    0.139294191    0.201615783
 596   Q   :   -0.265737711    0.021237099   -0.076207070
 597   Q   :    0.243250259    0.089939370   -0.183976075
 598   Q   :    0.026354000   -0.107959124    0.251066144
 599   Q   :    0.188084616    0.193887859   -0.053376834
 600   Q   :   -0.283511567    0.056594720   -0.003622516
 601   Q   :    0.089858018   -0.251438201    0.055747454
 602   Q   :    0.088960328    0.202371094   -0.151924884
 603   Q   :   -0.280736788   -0.031066301    0.061068084
 604   Q   :    0.189281193   -0.181269303    0.083760748
 605   Q   :   -0.281715624   -0.031023224   -0.076683579
 606   Q   :    0.124337718    0.240387551    0.063995357
 607   Q   :    0.147420689   -0.205375435   -0.000158902
 608   Q   :   -0.042032368    0.223343012   -0.152733455
 609   Q   :    0.248023308   -0.089710746    0.084571569
 610   Q   :   -0.196040670   -0.130114192    0.061024576
 611   Q   :   -0.148700325    0.037403675   -0.289210343
 612   Q   :   -0.111872709   -0.233554491    0.188056822
 613   Q   :    0.251655765    0.193946547    0.107893630
 614   Q   :   -0.197414314   -0.155473917    0.075274100
 615   Q   :    0.217332797    0.088903227    0.170087469
 616   Q   :   -0.009719590    0.080397360   -0.238440879
 617   Q   :    0.165814910    0.140334924    0.190084709
 618   Q   :   -0.194607808    0.091847516   -0.150120935
 619   Q   :    0.025698239   -0.225726199   -0.031861211
 620   Q   :   -0.238781273   -0.081445224    0.141043476
 621   Q   :   -0.005126343    0.025465811   -0.300043856
 622   Q   :    0.233372113    0.049032358    0.154211725
 623   Q   :    0.145830837    0.225368929   -0.106102265
 624   Q   :   -0.319179389   -0.019593207    0.003045364
 625   Q   :    0.179898515   -0.210399948    0.112333927
 626   Q   :    0.151493906   -0.154570045   -0.189862027
 627   Q   :   -0.083824581   -0.057077365    0.276902118
 628   Q   :   -0.058187082    0.208286654   -0.088640049
 629   Q   :   -0.264839980    0.124032675   -0.037835896
 630   Q   :    0.214844420    0.006607591   -0.168017717
 631   Q   :    0.051281542   -0.131040381    0.207362975
 632   Q   :    0.020899595   -0.269578966    0.045377387
 633   Q   :   -0.004055545    0.201456305    0.164016817
 634   Q   :   -0.011624784    0.068613773   -0.212399974

Difference to translation invariance:
           :   -0.0003826804    0.0000832434    0.0006843527

Difference to rotation invariance:
           :    0.0127569391   -0.0211218678    0.0089704904

Norm of the cartesian gradient     ...    6.3974685429
RMS gradient                       ...    0.1466908087
MAX gradient                       ...    0.3328109249

-------
TIMINGS
-------

Total SCF gradient time            ...      167.985 sec

One electron gradient       ....      24.956 sec  ( 14.9%)
RI-J Coulomb gradient       ....       8.966 sec  (  5.3%)
COSX gradient               ....     101.053 sec  ( 60.2%)
XC gradient                 ....      14.128 sec  (  8.4%)

Maximum memory used throughout the entire SCFGRAD-calculation: 682.3 MB

                            ***************************************
                            *     ORCA property calculations      *
                            ***************************************

                                    ---------------------
                                    Active property flags
                                    ---------------------
   (+) Dipole Moment


------------------------------------------------------------------------------
                       ORCA ELECTRIC PROPERTIES CALCULATION
------------------------------------------------------------------------------

Dipole Moment Calculation                       ... on
Quadrupole Moment Calculation                   ... off
Polarizability Calculation                      ... off
GBWName                                         ... final064.orca.gbw
Electron density                                ... final064.orca.scfp
The origin for moment calculation is the CENTER OF MASS  = (21.277920, 22.070429 20.513268)

-------------
DIPOLE MOMENT
-------------
                                X             Y             Z
Electronic contribution:     -0.70198      -1.23647      -0.94750
Nuclear contribution   :     10.38089      12.43771       8.06520
                        -----------------------------------------
Total Dipole Moment    :      9.67891      11.20124       7.11770
                        -----------------------------------------
Magnitude (a.u.)       :     16.42592
Magnitude (Debye)      :     41.75137



--------------------
Rotational spectrum 
--------------------
 
Rotational constants in cm-1:     0.002145     0.001688     0.001531 
Rotational constants in MHz :    64.292738    50.618761    45.909203 

 Dipole components along the rotational axes: 
x,y,z [a.u.] :     4.886809   -14.402763     6.204060 
x,y,z [Debye]:    12.421281   -36.608914    15.769466 

 

Timings for individual modules:

Sum of individual times         ...      725.271 sec (=  12.088 min)
GTO integral calculation        ...       11.976 sec (=   0.200 min)   1.7 %
SCF iterations                  ...      540.666 sec (=   9.011 min)  74.5 %
SCF Gradient evaluation         ...      172.629 sec (=   2.877 min)  23.8 %
                             ****ORCA TERMINATED NORMALLY****
TOTAL RUN TIME: 0 days 0 hours 12 minutes 12 seconds 622 msec
