
                                 *****************
                                 * O   R   C   A *
                                 *****************

                                            #,                                       
                                            ###                                      
                                            ####                                     
                                            #####                                    
                                            ######                                   
                                           ########,                                 
                                     ,,################,,,,,                         
                               ,,#################################,,                 
                          ,,##########################################,,             
                       ,#########################################, ''#####,          
                    ,#############################################,,   '####,        
                  ,##################################################,,,,####,       
                ,###########''''           ''''###############################       
              ,#####''   ,,,,##########,,,,          '''####'''          '####       
            ,##' ,,,,###########################,,,                        '##       
           ' ,,###''''                  '''############,,,                           
         ,,##''                                '''############,,,,        ,,,,,,###''
      ,#''                                            '''#######################'''  
     '                                                          ''''####''''         
             ,#######,   #######,   ,#######,      ##                                
            ,#'     '#,  ##    ##  ,#'     '#,    #''#        ######   ,####,        
            ##       ##  ##   ,#'  ##            #'  '#       #        #'  '#        
            ##       ##  #######   ##           ,######,      #####,   #    #        
            '#,     ,#'  ##    ##  '#,     ,#' ,#      #,         ##   #,  ,#        
             '#######'   ##     ##  '#######'  #'      '#     #####' # '####'        



                  #######################################################
                  #                        -***-                        #
                  #          Department of theory and spectroscopy      #
                  #    Directorship and core code : Frank Neese         #
                  #        Max Planck Institute fuer Kohlenforschung    #
                  #                Kaiser Wilhelm Platz 1               #
                  #                 D-45470 Muelheim/Ruhr               #
                  #                      Germany                        #
                  #                                                     #
                  #                  All rights reserved                #
                  #                        -***-                        #
                  #######################################################


                         Program Version 5.0.3 -  RELEASE  -


 With contributions from (in alphabetic order):
   Daniel Aravena         : Magnetic Suceptibility
   Michael Atanasov       : Ab Initio Ligand Field Theory (pilot matlab implementation)
   Alexander A. Auer      : GIAO ZORA, VPT2 properties, NMR spectrum
   Ute Becker             : Parallelization
   Giovanni Bistoni       : ED, misc. LED, open-shell LED, HFLD
   Martin Brehm           : Molecular dynamics
   Dmytro Bykov           : SCF Hessian
   Vijay G. Chilkuri      : MRCI spin determinant printing, contributions to CSF-ICE
   Dipayan Datta          : RHF DLPNO-CCSD density
   Achintya Kumar Dutta   : EOM-CC, STEOM-CC
   Dmitry Ganyushin       : Spin-Orbit,Spin-Spin,Magnetic field MRCI
   Miquel Garcia          : C-PCM and meta-GGA Hessian, CC/C-PCM, Gaussian charge scheme
   Yang Guo               : DLPNO-NEVPT2, F12-NEVPT2, CIM, IAO-localization
   Andreas Hansen         : Spin unrestricted coupled pair/coupled cluster methods
   Benjamin Helmich-Paris : MC-RPA, TRAH-SCF, COSX integrals
   Lee Huntington         : MR-EOM, pCC
   Robert Izsak           : Overlap fitted RIJCOSX, COSX-SCS-MP3, EOM
   Marcus Kettner         : VPT2
   Christian Kollmar      : KDIIS, OOCD, Brueckner-CCSD(T), CCSD density, CASPT2, CASPT2-K
   Simone Kossmann        : Meta GGA functionals, TD-DFT gradient, OOMP2, MP2 Hessian
   Martin Krupicka        : Initial AUTO-CI
   Lucas Lang             : DCDCAS
   Marvin Lechner         : AUTO-CI (C++ implementation), FIC-MRCC
   Dagmar Lenk            : GEPOL surface, SMD
   Dimitrios Liakos       : Extrapolation schemes; Compound Job, initial MDCI parallelization
   Dimitrios Manganas     : Further ROCIS development; embedding schemes
   Dimitrios Pantazis     : SARC Basis sets
   Anastasios Papadopoulos: AUTO-CI, single reference methods and gradients
   Taras Petrenko         : DFT Hessian,TD-DFT gradient, ASA, ECA, R-Raman, ABS, FL, XAS/XES, NRVS
   Peter Pinski           : DLPNO-MP2, DLPNO-MP2 Gradient
   Christoph Reimann      : Effective Core Potentials
   Marius Retegan         : Local ZFS, SOC
   Christoph Riplinger    : Optimizer, TS searches, QM/MM, DLPNO-CCSD(T), (RO)-DLPNO pert. Triples
   Tobias Risthaus        : Range-separated hybrids, TD-DFT gradient, RPA, STAB
   Michael Roemelt        : Original ROCIS implementation
   Masaaki Saitow         : Open-shell DLPNO-CCSD energy and density
   Barbara Sandhoefer     : DKH picture change effects
   Avijit Sen             : IP-ROCIS
   Kantharuban Sivalingam : CASSCF convergence, NEVPT2, FIC-MRCI
   Bernardo de Souza      : ESD, SOC TD-DFT
   Georgi Stoychev        : AutoAux, RI-MP2 NMR, DLPNO-MP2 response
   Willem Van den Heuvel  : Paramagnetic NMR
   Boris Wezisla          : Elementary symmetry handling
   Frank Wennmohs         : Technical directorship


 We gratefully acknowledge several colleagues who have allowed us to
 interface, adapt or use parts of their codes:
   Stefan Grimme, W. Hujo, H. Kruse, P. Pracht,  : VdW corrections, initial TS optimization,
                  C. Bannwarth, S. Ehlert          DFT functionals, gCP, sTDA/sTD-DF
   Ed Valeev, F. Pavosevic, A. Kumar             : LibInt (2-el integral package), F12 methods
   Garnet Chan, S. Sharma, J. Yang, R. Olivares  : DMRG
   Ulf Ekstrom                                   : XCFun DFT Library
   Mihaly Kallay                                 : mrcc  (arbitrary order and MRCC methods)
   Jiri Pittner, Ondrej Demel                    : Mk-CCSD
   Frank Weinhold                                : gennbo (NPA and NBO analysis)
   Christopher J. Cramer and Donald G. Truhlar   : smd solvation model
   Lars Goerigk                                  : TD-DFT with DH, B97 family of functionals
   V. Asgeirsson, H. Jonsson                     : NEB implementation
   FAccTs GmbH                                   : IRC, NEB, NEB-TS, DLPNO-Multilevel, CI-OPT
                                                   MM, QMMM, 2- and 3-layer-ONIOM, Crystal-QMMM,
                                                   LR-CPCM, SF, NACMEs, symmetry and pop. for TD-DFT,
                                                   nearIR, NL-DFT gradient (VV10), updates on ESD,
                                                   ML-optimized integration grids
   S Lehtola, MJT Oliveira, MAL Marques          : LibXC Library
   Liviu Ungur et al                             : ANISO software


 Your calculation uses the libint2 library for the computation of 2-el integrals
 For citations please refer to: http://libint.valeyev.net

 Your ORCA version has been built with support for libXC version: 5.1.0
 For citations please refer to: https://tddft.org/programs/libxc/

 This ORCA versions uses:
   CBLAS   interface :  Fast vector & matrix operations
   LAPACKE interface :  Fast linear algebra routines
   SCALAPACK package :  Parallel linear algebra routines
   Shared memory     :  Shared parallel matrices
   BLAS/LAPACK       :  OpenBLAS 0.3.15  USE64BITINT DYNAMIC_ARCH NO_AFFINITY SkylakeX SINGLE_THREADED
        Core in use  :  SkylakeX
   Copyright (c) 2011-2014, The OpenBLAS Project


================================================================================

----- Orbital basis set information -----
Your calculation utilizes the basis: def2-SVP
   F. Weigend and R. Ahlrichs, Phys. Chem. Chem. Phys. 7, 3297 (2005).

The basis set includes element-specific modifications.

Your calculation utilizes the basis: aug-cc-pVTZ 
    H, B-Ne : Obtained from the ccRepo (grant-hill.group.shef.ac.uk/ccrepo) Feb. 2017
              R. A. Kendall, T. H. Dunning, Jr., R. J. Harrison, J. Chem. Phys. 96, 6796 (1992)
         He : Obtained from the ccRepo (grant-hill.group.shef.ac.uk/ccrepo) Feb. 2017
              D. E. Woon, T. H. Dunning, Jr., J. Chem. Phys. 100, 2975 (1994)
  Li-Be, Na : Obtained from the ccRepo (grant-hill.group.shef.ac.uk/ccrepo) Feb. 2017
              B. P. Prascher, D. E. Woon, K. A. Peterson, T. H. Dunning, Jr., A. K. Wilson, Theor. Chem. Acc. 128, 69 (2011)
         Mg : Obtained from the Peterson Research Group Website (tyr0.chem.wsu.edu/~kipeters) Feb. 2017
              B. P. Prascher, D. E. Woon, K. A. Peterson, T. H. Dunning, Jr., A. K. Wilson, Theor. Chem. Acc. 128, 69 (2011)
      Al-Ar : Obtained from the ccRepo (grant-hill.group.shef.ac.uk/ccrepo) Feb. 2017
              D. E. Woon, T. H. Dunning, Jr., J. Chem. Phys. 98, 1358 (1993)
      Sc-Zn : Obtained from the ccRepo (grant-hill.group.shef.ac.uk/ccrepo) Feb. 2017
              N. B. Balabanov, K. A. Peterson, J. Chem. Phys. 123, 064107 (2005)
              N. B. Balabanov, K. A. Peterson, J. Chem. Phys. 125, 074110 (2006)
      Ga-Kr : Obtained from the ccRepo (grant-hill.group.shef.ac.uk/ccrepo) Feb. 2017
              A. K. Wilson, D. E. Woon, K. A. Peterson, T. H. Dunning, Jr., J. Chem. Phys. 110, 7667 (1999)
     Ag, Au : Obtained from the Peterson Research Group Website (tyr0.chem.wsu.edu/~kipeters) Feb. 2017
              K. A. Peterson, C. Puzzarini, Theor. Chem. Acc. 114, 283 (2005)

Your calculation utilizes the basis: cc-pVTZ 
       H, B-Ne : Obtained from the ccRepo (grant-hill.group.shef.ac.uk/ccrepo) Feb. 2017
                 T. H. Dunning, Jr., J. Chem. Phys. 90, 1007 (1989)
            He : Obtained from the ccRepo (grant-hill.group.shef.ac.uk/ccrepo) Feb. 2017
                 D. E. Woon, T. H. Dunning, Jr., J. Chem. Phys. 100, 2975 (1994)
  Li-Be, Na-Mg : Obtained from the ccRepo (grant-hill.group.shef.ac.uk/ccrepo) Feb. 2017
                 B. P. Prascher, D. E. Woon, K. A. Peterson, T. H. Dunning, Jr., A. K. Wilson, Theor. Chem. Acc. 128, 69 (2011)
         Al-Ar : Obtained from the ccRepo (grant-hill.group.shef.ac.uk/ccrepo) Feb. 2017
                 D. E. Woon, T. H. Dunning, Jr., J. Chem. Phys. 98, 1358 (1993)
            Ca : Obtained from the Peterson Research Group Website (tyr0.chem.wsu.edu/~kipeters) Feb. 2017
                 J. Koput, K. A. Peterson, J. Phys. Chem. 106, 9595 (2002)
         Sc-Zn : Obtained from the ccRepo (grant-hill.group.shef.ac.uk/ccrepo) Feb. 2017
                 N. B. Balabanov, K. A. Peterson, J. Chem. Phys. 123, 064107 (2005)
                 N. B. Balabanov, K. A. Peterson, J. Chem. Phys. 125, 074110 (2006)
         Ga-Kr : Obtained from the ccRepo (grant-hill.group.shef.ac.uk/ccrepo) Feb. 2017
                 A. K. Wilson, D. E. Woon, K. A. Peterson, T. H. Dunning, Jr., J. Chem. Phys. 110, 7667 (1999)
             Y : Obtained from the ccRepo (grant-hill.group.shef.ac.uk/ccrepo) Feb. 2017
                 K. A. Peterson, D. Figgen, M. Dolg, H. Stoll, J. Chem. Phys. 126, 124101 (2007)
        Ag, Au : Obtained from the Peterson Research Group Website (tyr0.chem.wsu.edu/~kipeters) Feb. 2017
                 K. A. Peterson, C. Puzzarini, Theor. Chem. Acc. 114, 283 (2005)

----- AuxJ basis set information -----
Your calculation utilizes the auxiliary basis: def2/J
   F. Weigend, Phys. Chem. Chem. Phys. 8, 1057 (2006).

================================================================================
                                        WARNINGS
                       Please study these warnings very carefully!
================================================================================

WARNING: The globally-selected AuxJ basis set is optimized for use with ECPs
         Make sure a suitable alternative is explicitly given all heavy elements (Z>36)

INFO   : the flag for use of the SHARK integral package has been found!

================================================================================
                                       INPUT FILE
================================================================================
NAME = final095.orca.inp
|  1> ! NoMOPrint PrintBasis #MINIPRINT SMALLPRINT LARGEPRINT
|  2> ! ALLPOP XYZFILE
|  3> #! BP86 3-21G   TightSCF
|  4> ! ENGRAD
|  5> ! B3LYP NormalPNO PModel #DecontractAux
|  6> #! VerySlowConv 
|  7>  %maxcore 5000
|  8>  %scf  maxiter   500  end 
|  9> 
| 10> %pal
| 11>     nprocs 32
| 12> end
| 13> 
| 14> %basis
| 15>     NewGTO O    # New basis for oxygen
| 16>         "aug-cc-pVTZ"
| 17>     end
| 18>     NewGTO C    # New basis for carbon
| 19>         "aug-cc-pVTZ"
| 20>     end
| 21>     NewGTO H    # New basis for hydrogen
| 22>         "cc-pVTZ"
| 23>     end
| 24> end
| 25> 
| 26> * xyz 0   1
| 27>   C  10.94  12.31  9.49  #1
| 28>   H  10.63  11.4  8.94  #2
| 29>   H  11.57  12.89  8.84  #3
| 30>   C  11.47  11.99  10.88  #4
| 31>   H  12.5  11.7  10.73  #5
| 32>   H  11.48  12.91  11.48  #6
| 33>   C  10.68  10.8  11.47  #7
| 34>   H  10.05  10.48  10.73  #8
| 35>   H  10.16  11.16  12.36  #9
| 36>   C  11.59  9.68  11.97  #10
| 37>   H  12.54  10.03  12.2  #11
| 38>   H  11.88  8.98  11.12  #12
| 39>   O  11.12  8.83  13.06  #13
| 40>   H  10.2  8.7  12.98  #14
| 41>   O  9.62  12.96  9.71  #15
| 42>   H  9.31  13.14  8.79  #16
| 43>   O  8.69  14.45  11.92  #17
| 44>   H  9.11  13.87  11.24  #18
| 45>   H  9.02  14.33  12.81  #19
| 46>   O  15.41  9.32  11.32  #20
| 47>   H  15.23  9.32  12.28  #21
| 48>   H  14.67  8.76  11.04  #22
| 49>   O  12.6  15.11  14.03  #23
| 50>   H  13.22  15.85  14.07  #24
| 51>   H  12.91  14.52  13.3  #25
| 52>   O  13.02  10.22  7.6  #26
| 53>   H  12.3  9.69  7.27  #27
| 54>   H  13.68  9.52  7.51  #28
| 55>   O  8.89  8.26  8.84  #29
| 56>   H  9.32  8.86  8.25  #30
| 57>   H  8.49  7.59  8.28  #31
| 58>   O  13.18  6.31  11.94  #32
| 59>   H  13.37  5.39  12.13  #33
| 60>   H  12.21  6.32  11.95  #34
| 61>   O  12.3  17.95  12.94  #35
| 62>   H  12.41  17.12  12.43  #36
| 63>   H  11.37  17.95  13.25  #37
| 64>   O  14.33  12.59  7.31  #38
| 65>   H  13.62  11.94  7.27  #39
| 66>   H  14.79  12.34  8.09  #40
| 67>   O  12.72  13.41  16.26  #41
| 68>   H  12.55  13.73  15.36  #42
| 69>   H  12.77  14.23  16.76  #43
| 70>   O  6.59  5.98  10.66  #44
| 71>   H  6.95  6.04  11.58  #45
| 72>   H  7.15  6.55  10.07  #46
| 73>   O  6.34  15.98  11.36  #47
| 74>   H  7  15.36  11.69  #48
| 75>   H  5.51  15.69  11.79  #49
| 76>   O  15.1  9  14.01  #50
| 77>   H  14.31  8.61  14.37  #51
| 78>   H  15.72  8.19  13.86  #52
| 79>   O  12.58  8.82  15.66  #53
| 80>   H  12.53  7.98  16.16  #54
| 81>   H  12.14  8.82  14.8  #55
| 82>   O  7.89  9.77  13.15  #56
| 83>   H  7.45  10.6  13.36  #57
| 84>   H  7.77  9.84  12.22  #58
| 85>   O  12.43  15.71  10.88  #59
| 86>   H  12.93  15.6  10.08  #60
| 87>   H  11.52  15.64  10.52  #61
| 88>   O  10.58  9.32  6.42  #62
| 89>   H  10.03  10.12  6.27  #63
| 90>   H  10.19  8.71  5.72  #64
| 91>   O  14.96  11.88  10.02  #65
| 92>   H  14.36  12.28  10.64  #66
| 93>   H  15.12  11  10.24  #67
| 94>   O  14.77  8.29  6.58  #68
| 95>   H  14.44  8.49  5.68  #69
| 96>   H  15.52  7.69  6.51  #70
| 97>   O  8.38  5.86  7.29  #71
| 98>   H  8.9  5.21  7.71  #72
| 99>   H  7.6  5.41  6.95  #73
|100>   O  14.21  13.37  12.58  #74
|101>   H  14.91  13.87  12.19  #75
|102>   H  14.62  12.67  13.1  #76
|103>   O  10.44  6.83  10.74  #77
|104>   H  9.89  7.25  10.11  #78
|105>   H  11.02  6.27  10.26  #79
|106>   O  8.62  7.74  5.11  #80
|107>   H  8.5  7.16  5.89  #81
|108>   H  8.96  7.08  4.46  #82
|109>   O  17.91  8.92  10.41  #83
|110>   H  16.99  9.12  10.58  #84
|111>   H  18.09  9.2  9.49  #85
|112>   O  8.66  13.36  7.06  #86
|113>   H  8.11  12.57  7.19  #87
|114>   H  8.12  13.97  6.56  #88
|115>   O  16.47  11.36  13.89  #89
|116>   H  15.92  10.63  14.19  #90
|117>   H  16.3  12.14  14.47  #91
|118>   O  7.55  10.11  10.26  #92
|119>   H  7.23  9.29  9.89  #93
|120>   H  7.72  10.62  9.44  #94
|121>   O  8.89  8.41  15.56  #95
|122>   H  8.28  7.67  15.88  #96
|123>   H  8.44  8.76  14.75  #97
|124>   O  10.03  16.48  10.11  #98
|125>   H  9.81  16.56  9.2  #99
|126>   H  9.24  16  10.49  #100
|127>   O  16.6  10.25  5.89  #101
|128>   H  16.8  11.24  5.95  #102
|129>   H  15.86  9.99  6.51  #103
|130>   O  13.7  7.87  9.8  #104
|131>   H  14.36  7.47  9.23  #105
|132>   H  13.44  7.21  10.51  #106
|133>   O  10.06  14.96  14.77  #107
|134>   H  9.88  14.29  15.48  #108
|135>   H  11.04  15.09  14.58  #109
|136>   Q  0.6645  14.3$  0.99$  16.54$
|137>   Q  0.6645  13.44$  2.06$  15.84$
|138>   Q  -1.3290  13.69$  1.57$  16.48$
|139>   Q  0.6645  3.46$  18.51$  10.53$
|140>   Q  0.6645  2.57$  18.56$  9.33$
|141>   Q  -1.3290  3.22$  18.78$  9.78$
|142>   Q  0.6645  18.22$  12.18$  1.56$
|143>   Q  0.6645  18.12$  12.29$  2.96$
|144>   Q  -1.3290  17.88$  11.95$  2.26$
|145>   Q  0.6645  18.09$  8.52$  15.78$
|146>   Q  0.6645  18$  7.11$  16.38$
|147>   Q  -1.3290  18.07$  7.67$  15.75$
|148>   Q  0.6645  10.17$  17.58$  7.17$
|149>   Q  0.6645  11.49$  18.15$  6.99$
|150>   Q  -1.3290  10.97$  17.56$  7.28$
|151>   Q  0.6645  2.88$  17.93$  4.53$
|152>   Q  0.6645  3.91$  17.26$  3.57$
|153>   Q  -1.3290  3.27$  17.79$  3.77$
|154>   Q  0.6645  17.8$  3.29$  6.22$
|155>   Q  0.6645  17.34$  3.71$  7.58$
|156>   Q  -1.3290  17.3$  3.73$  6.75$
|157>   Q  0.6645  6.12$  12.65$  14.46$
|158>   Q  0.6645  7.62$  12.62$  14.67$
|159>   Q  -1.3290  6.9$  12.38$  14.27$
|160>   Q  0.6645  5.88$  1.05$  12.36$
|161>   Q  0.6645  5.84$  0.57$  13.79$
|162>   Q  -1.3290  6.1$  1.06$  13.17$
|163>   Q  0.6645  7.49$  4.43$  4.49$
|164>   Q  0.6645  6.65$  5.76$  4.44$
|165>   Q  -1.3290  7.01$  5.03$  4.12$
|166>   Q  0.6645  10.71$  10.28$  0.86$
|167>   Q  0.6645  9.53$  9.26$  0.7$
|168>   Q  -1.3290  9.93$  10.02$  0.6$
|169>   Q  0.6645  11.99$  16.16$  5.73$
|170>   Q  0.6645  13.15$  15.51$  5.05$
|171>   Q  -1.3290  12.42$  15.87$  5.1$
|172>   Q  0.6645  4.02$  15.22$  2.58$
|173>   Q  0.6645  4.81$  15.12$  3.77$
|174>   Q  -1.3290  4.67$  15.44$  3.03$
|175>   Q  0.6645  13.42$  3.92$  8.4$
|176>   Q  0.6645  14.24$  2.69$  7.86$
|177>   Q  -1.3290  13.87$  3.46$  7.84$
|178>   Q  0.6645  4.69$  11.93$  6.1$
|179>   Q  0.6645  4.26$  11.52$  4.74$
|180>   Q  -1.3290  4.3$  12.05$  5.37$
|181>   Q  0.6645  5.25$  12.23$  19.94$
|182>   Q  0.6645  6.2$  11.21$  20.63$
|183>   Q  -1.3290  5.45$  11.5$  20.34$
|184>   Q  0.6645  12.74$  2.06$  18.28$
|185>   Q  0.6645  11.94$  0.96$  18.96$
|186>   Q  -1.3290  12.13$  1.74$  18.79$
|187>   Q  0.6645  11.97$  18.29$  1.28$
|188>   Q  0.6645  11.22$  17.05$  1.97$
|189>   Q  -1.3290  11.43$  17.6$  1.36$
|190>   Q  0.6645  18.1$  9.9$  7.08$
|191>   Q  0.6645  19.05$  10.59$  7.97$
|192>   Q  -1.3290  18.69$  9.91$  7.66$
|193>   Q  0.6645  1.55$  14.41$  8.49$
|194>   Q  0.6645  2.95$  14.11$  8.3$
|195>   Q  -1.3290  2.16$  14.1$  8.07$
|196>   Q  0.6645  12.64$  16.22$  8.02$
|197>   Q  0.6645  13.32$  15.11$  7.39$
|198>   Q  -1.3290  13.23$  15.66$  7.99$
|199>   Q  0.6645  15.17$  5.4$  16.12$
|200>   Q  0.6645  16.05$  4.32$  16.77$
|201>   Q  -1.3290  15.59$  5.01$  16.76$
|202>   Q  0.6645  14.32$  2.94$  5.17$
|203>   Q  0.6645  15.7$  3.34$  5.52$
|204>   Q  -1.3290  15.09$  3.12$  4.99$
|205>   Q  0.6645  21.15$  8.52$  13.66$
|206>   Q  0.6645  20.29$  7.6$  12.62$
|207>   Q  -1.3290  21.01$  7.92$  13.03$
|208>   Q  0.6645  10.96$  1.51$  7.1$
|209>   Q  0.6645  9.75$  1.86$  8.16$
|210>   Q  -1.3290  10.37$  2$  7.53$
|211>   Q  0.6645  3.88$  13.95$  15.29$
|212>   Q  0.6645  5.08$  14.78$  15.11$
|213>   Q  -1.3290  4.62$  14.07$  15.01$
|214>   Q  0.6645  6.28$  19.38$  12.92$
|215>   Q  0.6645  5.54$  19.87$  14.27$
|216>   Q  -1.3290  5.81$  19.32$  13.66$
|217>   Q  0.6645  3.12$  4.49$  10.76$
|218>   Q  0.6645  2.06$  5.44$  11.28$
|219>   Q  -1.3290  2.52$  4.75$  11.26$
|220>   Q  0.6645  4.13$  14.28$  19.2$
|221>   Q  0.6645  4.65$  13.21$  18.19$
|222>   Q  -1.3290  4.68$  13.7$  18.87$
|223>   Q  0.6645  18.54$  13.77$  10.76$
|224>   Q  0.6645  19.23$  14.91$  11.69$
|225>   Q  -1.3290  18.97$  14.13$  11.45$
|226>   Q  0.6645  17.17$  10.35$  2.84$
|227>   Q  0.6645  16.8$  9.45$  4.03$
|228>   Q  -1.3290  16.77$  9.71$  3.23$
|229>   Q  0.6645  10.87$  13.7$  20.54$
|230>   Q  0.6645  11.32$  15.25$  20.8$
|231>   Q  -1.3290  10.87$  14.49$  20.87$
|232>   Q  0.6645  12.91$  20.46$  14.8$
|233>   Q  0.6645  13.08$  19.25$  13.77$
|234>   Q  -1.3290  13.29$  19.79$  14.41$
|235>   Q  0.6645  18.17$  18.89$  16.09$
|236>   Q  0.6645  16.81$  18.69$  15.29$
|237>   Q  -1.3290  17.54$  19.09$  15.49$
|238>   Q  0.6645  5.75$  7.27$  7.81$
|239>   Q  0.6645  5.21$  8.55$  8.42$
|240>   Q  -1.3290  5.74$  7.89$  8.37$
|241>   Q  0.6645  3.66$  9.51$  11.2$
|242>   Q  0.6645  4.24$  10.84$  11.06$
|243>   Q  -1.3290  3.63$  10.31$  11.02$
|244>   Q  0.6645  17.77$  16.93$  2.73$
|245>   Q  0.6645  17.89$  15.39$  2.79$
|246>   Q  -1.3290  17.76$  16.17$  3.13$
|247>   Q  0.6645  7.32$  4.22$  10.48$
|248>   Q  0.6645  7.25$  3.15$  9.31$
|249>   Q  -1.3290  7.56$  3.55$  10.02$
|250>   Q  0.6645  8.81$  7.03$  1.89$
|251>   Q  0.6645  8.47$  7.07$  0.43$
|252>   Q  -1.3290  8.64$  7.43$  1.17$
|253>   Q  0.6645  15.21$  15.75$  8.58$
|254>   Q  0.6645  16.18$  14.49$  9.02$
|255>   Q  -1.3290  15.92$  15.32$  8.79$
|256>   Q  0.6645  18.17$  10.45$  17.44$
|257>   Q  0.6645  17.7$  10.88$  16.1$
|258>   Q  -1.3290  18.19$  10.49$  16.61$
|259>   Q  0.6645  15.26$  17.37$  16.09$
|260>   Q  0.6645  14.36$  18.26$  15.19$
|261>   Q  -1.3290  14.93$  17.65$  15.37$
|262>   Q  0.6645  8.19$  12.24$  20.42$
|263>   Q  0.6645  8.89$  10.95$  21.08$
|264>   Q  -1.3290  8.4$  11.4$  20.47$
|265>   Q  0.6645  11.17$  17.92$  16.06$
|266>   Q  0.6645  12.34$  18.79$  16.49$
|267>   Q  -1.3290  11.82$  18.14$  16.52$
|268>   Q  0.6645  19.73$  15.78$  7.32$
|269>   Q  0.6645  18.9$  15.93$  8.54$
|270>   Q  -1.3290  19.46$  15.57$  8.07$
|271>   Q  0.6645  16.39$  6.87$  19.51$
|272>   Q  0.6645  16.43$  6.24$  18.15$
|273>   Q  -1.3290  16.61$  6.83$  18.69$
|274>   Q  0.6645  12.39$  11.37$  3.7$
|275>   Q  0.6645  12.9$  11.63$  5.16$
|276>   Q  -1.3290  12.97$  11.57$  4.33$
|277>   Q  0.6645  6.22$  18.74$  9.09$
|278>   Q  0.6645  4.61$  18.72$  8.69$
|279>   Q  -1.3290  5.47$  18.63$  8.57$
|280>   Q  0.6645  3.7$  4.98$  17.53$
|281>   Q  0.6645  4.81$  4.33$  16.51$
|282>   Q  -1.3290  4.35$  4.93$  16.94$
|283>   Q  0.6645  11.8$  22.32$  10.92$
|284>   Q  0.6645  12.41$  20.95$  10.8$
|285>   Q  -1.3290  11.81$  21.51$  10.74$
|286>   Q  0.6645  6.54$  16.3$  5.28$
|287>   Q  0.6645  5.97$  15.3$  6.28$
|288>   Q  -1.3290  6.44$  15.57$  5.64$
|289>   Q  0.6645  6.59$  10.36$  7.45$
|290>   Q  0.6645  7.59$  10.95$  6.43$
|291>   Q  -1.3290  7.27$  10.79$  7.2$
|292>   Q  0.6645  15.84$  14.42$  14.28$
|293>   Q  0.6645  15.06$  13.85$  15.44$
|294>   Q  -1.3290  15.7$  13.93$  14.92$
|295>   Q  0.6645  17.03$  12.47$  9.89$
|296>   Q  0.6645  17.55$  12.93$  8.43$
|297>   Q  -1.3290  17.5$  12.89$  9.3$
|298>   Q  0.6645  4.93$  20.67$  8.79$
|299>   Q  0.6645  3.77$  21.46$  8.25$
|300>   Q  -1.3290  4.57$  21.32$  8.42$
|301>   Q  0.6645  3.04$  7.34$  4.42$
|302>   Q  0.6645  2.85$  8.44$  5.33$
|303>   Q  -1.3290  3.27$  8.04$  4.78$
|304>   Q  0.6645  17.14$  6.62$  5.02$
|305>   Q  0.6645  16.79$  5.87$  6.29$
|306>   Q  -1.3290  16.95$  6.56$  5.83$
|307>   Q  0.6645  3.39$  10.14$  13.44$
|308>   Q  0.6645  2.58$  11.2$  13.98$
|309>   Q  -1.3290  3.05$  10.56$  14.05$
|310>   Q  0.6645  6.08$  8.38$  17.59$
|311>   Q  0.6645  4.65$  7.68$  17.59$
|312>   Q  -1.3290  5.3$  8.16$  17.27$
|313>   Q  0.6645  16.32$  16.24$  18.41$
|314>   Q  0.6645  16.84$  17.46$  17.77$
|315>   Q  -1.3290  16.26$  16.86$  17.86$
|316>   Q  0.6645  3.85$  10.4$  8.91$
|317>   Q  0.6645  3.71$  9.82$  7.52$
|318>   Q  -1.3290  4.14$  10.05$  8.19$
|319>   Q  0.6645  4.24$  18.77$  13.09$
|320>   Q  0.6645  2.97$  18.06$  12.68$
|321>   Q  -1.3290  3.57$  18.63$  12.6$
|322>   Q  0.6645  3.66$  14.17$  11.48$
|323>   Q  0.6645  3.89$  14.3$  13.03$
|324>   Q  -1.3290  3.79$  14.59$  12.21$
|325>   Q  0.6645  12.26$  -0.41$  8.57$
|326>   Q  0.6645  13.43$  0.29$  7.85$
|327>   Q  -1.3290  12.65$  0$  7.95$
|328>   Q  0.6645  9.84$  18.93$  19.73$
|329>   Q  0.6645  10.36$  18.61$  18.3$
|330>   Q  -1.3290  9.97$  19.05$  18.87$
|331>   Q  0.6645  13.68$  4.81$  6.15$
|332>   Q  0.6645  13.8$  5.46$  4.81$
|333>   Q  -1.3290  13.5$  5.36$  5.58$
|334>   Q  0.6645  4.69$  17.21$  15.52$
|335>   Q  0.6645  5.64$  17.23$  14.35$
|336>   Q  -1.3290  5.23$  16.89$  14.98$
|337>   Q  0.6645  19.68$  12.67$  8.16$
|338>   Q  0.6645  20.25$  11.64$  9.18$
|339>   Q  -1.3290  20.21$  12.05$  8.43$
|340>   Q  0.6645  6.35$  8.91$  13.94$
|341>   Q  0.6645  5.61$  8.15$  15.02$
|342>   Q  -1.3290  6.04$  8.22$  14.29$
|343>   Q  0.6645  20.43$  10.66$  14.34$
|344>   Q  0.6645  20.32$  9.77$  15.74$
|345>   Q  -1.3290  20.57$  10$  14.92$
|346>   Q  0.6645  14.86$  13.87$  6.22$
|347>   Q  0.6645  14.96$  14.15$  4.76$
|348>   Q  -1.3290  14.97$  14.36$  5.56$
|349>   Q  0.6645  9.38$  11.5$  2.12$
|350>   Q  0.6645  8.74$  12.7$  2.4$
|351>   Q  -1.3290  8.97$  11.96$  2.62$
|352>   Q  0.6645  9$  3.13$  6.06$
|353>   Q  0.6645  7.5$  2.69$  5.89$
|354>   Q  -1.3290  8.28$  2.96$  5.63$
|355>   Q  0.6645  21.11$  10.03$  10.52$
|356>   Q  0.6645  19.65$  10.19$  11.01$
|357>   Q  -1.3290  20.37$  10.41$  10.63$
|358>   Q  0.6645  5.37$  3.43$  14.8$
|359>   Q  0.6645  6.49$  2.55$  15.43$
|360>   Q  -1.3290  5.88$  3.11$  15.43$
|361>   Q  0.6645  9.66$  20.11$  6.74$
|362>   Q  0.6645  11.1$  20.12$  6.21$
|363>   Q  -1.3290  10.27$  20.18$  6.16$
|364>   Q  0.6645  11.66$  11.97$  16.88$
|365>   Q  0.6645  12.09$  10.53$  16.33$
|366>   Q  -1.3290  11.66$  11.11$  16.83$
|367>   Q  0.6645  4.46$  7.76$  12.61$
|368>   Q  0.6645  3.11$  7.38$  11.86$
|369>   Q  -1.3290  3.87$  7.79$  12$
|370>   Q  0.6645  12.26$  3.4$  14.38$
|371>   Q  0.6645  12.94$  2.53$  13.36$
|372>   Q  -1.3290  12.88$  2.89$  14.08$
|373>   Q  0.6645  13.93$  19.42$  10.33$
|374>   Q  0.6645  13.17$  18.91$  11.61$
|375>   Q  -1.3290  13.58$  19.47$  11.13$
|376>   Q  0.6645  4.3$  9.22$  3.93$
|377>   Q  0.6645  5.82$  9.7$  3.73$
|378>   Q  -1.3290  4.95$  9.72$  3.61$
|379>   Q  0.6645  8.83$  3.13$  12.57$
|380>   Q  0.6645  7.87$  1.87$  12.73$
|381>   Q  -1.3290  8.62$  2.32$  12.78$
|382>   Q  0.6645  17.14$  16.68$  9.16$
|383>   Q  0.6645  17.89$  17.64$  10.08$
|384>   Q  -1.3290  17.65$  17.31$  9.34$
|385>   Q  0.6645  13.84$  9.94$  4.09$
|386>   Q  0.6645  14.55$  8.84$  3.38$
|387>   Q  -1.3290  13.99$  9.13$  3.9$
|388>   Q  0.6645  13.04$  6.03$  14.74$
|389>   Q  0.6645  14.15$  6.44$  13.81$
|390>   Q  -1.3290  13.82$  6.21$  14.53$
|391>   Q  0.6645  5.71$  18.61$  6.15$
|392>   Q  0.6645  6.81$  18.36$  4.98$
|393>   Q  -1.3290  6.02$  18.49$  5.32$
|394>   Q  0.6645  11.97$  9.34$  2.25$
|395>   Q  0.6645  12.95$  10.35$  1.79$
|396>   Q  -1.3290  12.22$  10.11$  2.05$
|397>   Q  0.6645  1.27$  9.49$  8.97$
|398>   Q  0.6645  1.99$  9.71$  10.28$
|399>   Q  -1.3290  1.34$  9.45$  9.79$
|400>   Q  0.6645  5.74$  16.85$  8.54$
|401>   Q  0.6645  6.28$  15.74$  9.45$
|402>   Q  -1.3290  6.03$  16.06$  8.73$
|403>   Q  0.6645  10.63$  6.64$  3.36$
|404>   Q  0.6645  10.12$  5.23$  3.25$
|405>   Q  -1.3290  10.03$  6.02$  3.41$
|406>   Q  0.6645  8.06$  14.47$  19.46$
|407>   Q  0.6645  6.85$  13.68$  18.99$
|408>   Q  -1.3290  7.68$  13.81$  19.12$
|409>   Q  0.6645  5.82$  2.82$  7.6$
|410>   Q  0.6645  5.57$  4.04$  8.36$
|411>   Q  -1.3290  6.02$  3.58$  7.86$
|412>   Q  0.6645  16.33$  13.28$  17.81$
|413>   Q  0.6645  17.04$  14.37$  17.05$
|414>   Q  -1.3290  16.86$  13.91$  17.72$
|415>   Q  0.6645  15.13$  8.99$  16.49$
|416>   Q  0.6645  15.71$  8.74$  17.85$
|417>   Q  -1.3290  15.16$  9.09$  17.32$
|418>   Q  0.6645  9.76$  11.67$  4.51$
|419>   Q  0.6645  9.74$  12.46$  5.82$
|420>   Q  -1.3290  9.97$  11.86$  5.31$
|421>   Q  0.6645  2.57$  15.95$  12.64$
|422>   Q  0.6645  1.77$  16.65$  13.7$
|423>   Q  -1.3290  2.07$  16.53$  12.94$
|424>   Q  0.6645  8.54$  21.03$  8.4$
|425>   Q  0.6645  9.03$  19.61$  8.85$
|426>   Q  -1.3290  8.61$  20.2$  8.36$
|427>   Q  0.6645  8$  7.16$  17.98$
|428>   Q  0.6645  8.6$  8.43$  18.23$
|429>   Q  -1.3290  7.99$  7.92$  18.3$
|430>   Q  0.6645  10.95$  16.11$  3.88$
|431>   Q  0.6645  9.88$  15.57$  2.85$
|432>   Q  -1.3290  10.23$  16.15$  3.39$
|433>   Q  0.6645  11.42$  3.37$  8.7$
|434>   Q  0.6645  11.73$  4.94$  8.9$
|435>   Q  -1.3290  11.59$  4.11$  9.13$
|436>   Q  0.6645  13.44$  8.47$  17.82$
|437>   Q  0.6645  13.72$  7.03$  18.43$
|438>   Q  -1.3290  13.24$  7.66$  18.09$
|439>   Q  0.6645  6.98$  2.68$  18.62$
|440>   Q  0.6645  6.98$  1.24$  18.84$
|441>   Q  -1.3290  6.63$  1.94$  18.65$
|442>   Q  0.6645  10.97$  4.6$  19.89$
|443>   Q  0.6645  12.32$  4.03$  20.21$
|444>   Q  -1.3290  11.65$  4.54$  20.34$
|445>   Q  0.6645  13.22$  20.29$  6.21$
|446>   Q  0.6645  13.09$  19.09$  5.29$
|447>   Q  -1.3290  12.91$  19.51$  6$
|448>   Q  0.6645  19.62$  3.69$  12.26$
|449>   Q  0.6645  18.66$  3.84$  10.92$
|450>   Q  -1.3290  18.88$  3.71$  11.79$
|451>   Q  0.6645  11.87$  13.84$  0.84$
|452>   Q  0.6645  12.84$  14.81$  1.3$
|453>   Q  -1.3290  12.57$  14.03$  1.19$
|454>   Q  0.6645  8.09$  18.35$  7.39$
|455>   Q  0.6645  7.62$  16.89$  7.61$
|456>   Q  -1.3290  8.16$  17.51$  7.41$
|457>   Q  0.6645  9.44$  10.09$  19.47$
|458>   Q  0.6645  10.59$  9.81$  18.45$
|459>   Q  -1.3290  10.11$  9.62$  19.11$
|460>   Q  0.6645  12.38$  6.25$  -0.29$
|461>   Q  0.6645  12.82$  7.76$  -0.25$
|462>   Q  -1.3290  12.74$  6.96$  0.04$
|463>   Q  0.6645  18.53$  11.43$  13.36$
|464>   Q  0.6645  19.23$  12.74$  12.83$
|465>   Q  -1.3290  19.18$  11.94$  13.16$
|466>   Q  0.6645  6.23$  6.17$  16.85$
|467>   Q  0.6645  7.11$  5.12$  16.05$
|468>   Q  -1.3290  6.95$  5.86$  16.44$
|469>   Q  0.6645  10.71$  2.62$  17.91$
|470>   Q  0.6645  10.65$  3.46$  16.65$
|471>   Q  -1.3290  10.33$  3.01$  17.27$
|472>   Q  0.6645  12.87$  16.55$  17.33$
|473>   Q  0.6645  14.18$  16.04$  17.65$
|474>   Q  -1.3290  13.39$  15.93$  17.5$
|475>   Q  0.6645  2.48$  7.18$  15.43$
|476>   Q  0.6645  3.43$  5.96$  15.42$
|477>   Q  -1.3290  2.85$  6.49$  15.12$
|478>   Q  0.6645  8.14$  15.42$  1.35$
|479>   Q  0.6645  9.25$  14.71$  0.72$
|480>   Q  -1.3290  8.7$  14.81$  1.31$
|481>   Q  0.6645  15.07$  19.97$  12.29$
|482>   Q  0.6645  15.59$  20.41$  13.69$
|483>   Q  -1.3290  15.65$  20.2$  12.87$
|484>   Q  0.6645  12.49$  7.09$  2$
|485>   Q  0.6645  12.75$  7.91$  3.41$
|486>   Q  -1.3290  12.39$  7.31$  2.9$
|487>   Q  0.6645  2.12$  8.54$  16.68$
|488>   Q  0.6645  1.78$  9.25$  15.23$
|489>   Q  -1.3290  1.68$  8.74$  15.92$
|490>   Q  0.6645  5.1$  7$  5.71$
|491>   Q  0.6645  4.84$  5.71$  6.51$
|492>   Q  -1.3290  5.31$  6.3$  6.14$
|493>   Q  0.6645  17.3$  6.99$  14.26$
|494>   Q  0.6645  16.43$  5.92$  13.46$
|495>   Q  -1.3290  16.77$  6.7$  13.64$
|496>   Q  0.6645  7.58$  4.8$  17.83$
|497>   Q  0.6645  8.63$  3.75$  18.25$
|498>   Q  -1.3290  7.99$  4.31$  18.36$
|499>   Q  0.6645  12.25$  7.2$  8.23$
|500>   Q  0.6645  12.45$  6.34$  7.1$
|501>   Q  -1.3290  12.19$  6.46$  7.88$
|502>   Q  0.6645  8.61$  1.97$  14.53$
|503>   Q  0.6645  9.16$  2.01$  16.03$
|504>   Q  -1.3290  8.69$  1.71$  15.35$
|505>   Q  0.6645  15.96$  19.09$  9.33$
|506>   Q  0.6645  15.1$  19.69$  8.2$
|507>   Q  -1.3290  15.37$  19.57$  9.03$
|508>   Q  0.6645  16.39$  2.02$  16.42$
|509>   Q  0.6645  17.66$  2.68$  15.83$
|510>   Q  -1.3290  16.84$  2.66$  16.05$
|511>   Q  0.6645  16.31$  3.61$  14.17$
|512>   Q  0.6645  17.3$  3.92$  12.89$
|513>   Q  -1.3290  16.56$  3.9$  13.4$
|514>   Q  0.6645  10.55$  19.94$  10.8$
|515>   Q  0.6645  10.14$  18.46$  10.64$
|516>   Q  -1.3290  9.99$  19.3$  10.73$
|517>   Q  0.6645  17.57$  4.59$  9.42$
|518>   Q  0.6645  18.99$  4.68$  9.18$
|519>   Q  -1.3290  18.28$  4.24$  9.24$
|520>   Q  0.6645  19.36$  15.95$  13.9$
|521>   Q  0.6645  18.4$  17.07$  13.35$
|522>   Q  -1.3290  18.81$  16.32$  13.35$
|523>   Q  0.6645  15.18$  3.55$  11.84$
|524>   Q  0.6645  13.99$  3.4$  10.82$
|525>   Q  -1.3290  14.64$  3.78$  11.2$
|526>   Q  0.6645  9.26$  16.42$  15.08$
|527>   Q  0.6645  8.89$  17.86$  14.73$
|528>   Q  -1.3290  8.93$  17.18$  15.22$
|529>   Q  0.6645  13.82$  12.59$  20.99$
|530>   Q  0.6645  13.89$  13.37$  22.23$
|531>   Q  -1.3290  14.25$  12.89$  21.64$
|532>   Q  0.6645  7.15$  17.14$  18.47$
|533>   Q  0.6645  7.38$  16.95$  16.94$
|534>   Q  -1.3290  6.96$  17.21$  17.65$
|535>   Q  0.6645  8.71$  5.51$  13.23$
|536>   Q  0.6645  9.82$  5.73$  12.22$
|537>   Q  -1.3290  9.49$  5.36$  12.89$
|538>   Q  0.6645  9.53$  19.7$  13.95$
|539>   Q  0.6645  9.87$  19.23$  12.54$
|540>   Q  -1.3290  9.76$  19.1$  13.41$
|541>   Q  0.6645  14.84$  11.03$  17.12$
|542>   Q  0.6645  14.07$  12.29$  16.93$
|543>   Q  -1.3290  14.75$  11.84$  16.95$
|544>   Q  0.6645  9.12$  19.16$  4.56$
|545>   Q  0.6645  9.03$  17.76$  4.04$
|546>   Q  -1.3290  8.72$  18.5$  4.24$
|547>   Q  0.6645  16.58$  17$  4.49$
|548>   Q  0.6645  15.54$  16.53$  5.53$
|549>   Q  -1.3290  15.9$  17.08$  5.02$
|550>   Q  0.6645  4.73$  3$  12.44$
|551>   Q  0.6645  3.62$  4.04$  12.75$
|552>   Q  -1.3290  4.34$  3.62$  12.85$
|553>   Q  0.6645  10.69$  5.21$  14.46$
|554>   Q  0.6645  11$  5.66$  16.01$
|555>   Q  -1.3290  11.12$  5.28$  15.24$
|556>   Q  0.6645  7.97$  6.9$  19.99$
|557>   Q  0.6645  8.09$  5.43$  20.18$
|558>   Q  -1.3290  8.06$  6.23$  20.46$
|559>   Q  0.6645  15.73$  9.1$  21.47$
|560>   Q  0.6645  16.46$  9.63$  20.35$
|561>   Q  -1.3290  15.98$  9.08$  20.72$
|562>   Q  0.6645  19.69$  12.91$  15.2$
|563>   Q  0.6645  20.11$  12.83$  16.68$
|564>   Q  -1.3290  20.01$  13.18$  15.92$
|565>   Q  0.6645  2.01$  13.37$  16.46$
|566>   Q  0.6645  1.88$  13.1$  14.92$
|567>   Q  -1.3290  2.13$  13.51$  15.64$
|568>   Q  0.6645  2.84$  13.5$  4.93$
|569>   Q  0.6645  1.95$  14.14$  5.97$
|570>   Q  -1.3290  2.21$  13.99$  5.18$
|571>   Q  0.6645  1.59$  10.32$  6.85$
|572>   Q  0.6645  1.26$  8.72$  6.84$
|573>   Q  -1.3290  1.78$  9.43$  6.86$
|574>   Q  0.6645  14.56$  12.66$  3.4$
|575>   Q  0.6645  15.84$  13.01$  2.76$
|576>   Q  -1.3290  15.14$  13.18$  3.17$
|577>   Q  0.6645  4.43$  20.76$  6.47$
|578>   Q  0.6645  4.69$  19.82$  5.33$
|579>   Q  -1.3290  4.22$  20.34$  5.8$
|580>   Q  0.6645  15.71$  10.28$  1.67$
|581>   Q  0.6645  15.11$  11.21$  0.64$
|582>   Q  -1.3290  15.11$  10.54$  1.14$
|583>   Q  0.6645  10.62$  2.15$  12.19$
|584>   Q  0.6645  11.24$  3.1$  10.97$
|585>   Q  -1.3290  11.27$  2.52$  11.63$
|586>   Q  0.6645  6.65$  6.42$  13.62$
|587>   Q  0.6645  6.21$  5.01$  12.95$
|588>   Q  -1.3290  6.76$  5.63$  13.26$
|589>   Q  0.6645  18.05$  6.83$  12.36$
|590>   Q  0.6645  18.62$  7.71$  11.22$
|591>   Q  -1.3290  18.65$  7.07$  11.79$
|592>   Q  0.6645  7.75$  9.41$  4.68$
|593>   Q  0.6645  7.96$  10.72$  4.08$
|594>   Q  -1.3290  7.51$  10.16$  4.52$
|595>   Q  0.6645  14.68$  19.31$  3.29$
|596>   Q  0.6645  14.21$  17.8$  3.52$
|597>   Q  -1.3290  14.11$  18.67$  3.35$
|598>   Q  0.6645  4.79$  10.53$  17.35$
|599>   Q  0.6645  4.26$  10.92$  15.97$
|600>   Q  -1.3290  4.44$  11.01$  16.81$
|601>   Q  0.6645  6.52$  12.66$  11.9$
|602>   Q  0.6645  6.51$  11.38$  11.14$
|603>   Q  -1.3290  6.17$  12.08$  11.38$
|604>   Q  0.6645  9.21$  11.97$  16.33$
|605>   Q  0.6645  8.65$  13.22$  17.07$
|606>   Q  -1.3290  9.07$  12.79$  16.51$
|607>   Q  0.6645  21.91$  12.08$  11.09$
|608>   Q  0.6645  20.78$  13.05$  11.3$
|609>   Q  -1.3290  21.58$  12.84$  11.24$
|610>   Q  0.6645  16.5$  6.72$  10.4$
|611>   Q  0.6645  15.5$  5.6$  10.05$
|612>   Q  -1.3290  16.15$  6.11$  9.95$
|613>   Q  0.6645  7.3$  9.24$  1.17$
|614>   Q  0.6645  6.07$  10.19$  1.58$
|615>   Q  -1.3290  6.52$  9.66$  1.1$
|616>   Q  0.6645  7.71$  18.72$  11.23$
|617>   Q  0.6645  6.44$  17.75$  10.98$
|618>   Q  -1.3290  6.99$  18.42$  10.85$
|619>   Q  0.6645  16.84$  15.66$  12.87$
|620>   Q  0.6645  15.7$  16.53$  13.65$
|621>   Q  -1.3290  16.05$  15.87$  13.21$
|622>   Q  0.6645  13.09$  9.75$  20.36$
|623>   Q  0.6645  11.59$  9.34$  20.41$
|624>   Q  -1.3290  12.36$  9.5$  20.72$
|625>   Q  0.6645  11.75$  11.44$  20.17$
|626>   Q  0.6645  12.05$  11.94$  18.89$
|627>   Q  -1.3290  12.12$  11.99$  19.71$
|628>   Q  0.6645  17.07$  13.37$  6.01$
|629>   Q  0.6645  18.39$  12.64$  6.3$
|630>   Q  -1.3290  17.55$  12.82$  6.39$
|631>   Q  0.6645  15.88$  18.81$  5.97$
|632>   Q  0.6645  15.35$  20.31$  5.7$
|633>   Q  -1.3290  15.75$  19.67$  6.14$
|634>   Q  0.6645  4.95$  5.57$  9.78$
|635>   Q  0.6645  3.85$  5.29$  8.69$
|636>   Q  -1.3290  4.34$  5.13$  9.33$
|637>   Q  0.6645  4.9$  14.5$  8.89$
|638>   Q  0.6645  4.87$  13.11$  9.5$
|639>   Q  -1.3290  4.56$  13.81$  9.21$
|640>   Q  0.6645  -0.06$  11.55$  6.78$
|641>   Q  0.6645  1.23$  12.44$  7.04$
|642>   Q  -1.3290  0.72$  11.86$  6.66$
|643>   Q  0.6645  9.88$  0.61$  9.88$
|644>   Q  0.6645  8.58$  1.52$  10.11$
|645>   Q  -1.3290  9.12$  0.98$  9.68$
|646>   Q  0.6645  6.2$  16.09$  1.79$
|647>   Q  0.6645  6.69$  17.43$  1.34$
|648>   Q  -1.3290  6.6$  16.62$  1.29$
|649>   Q  0.6645  10.9$  7.22$  17.87$
|650>   Q  0.6645  9.96$  7.32$  16.77$
|651>   Q  -1.3290  10.32$  6.91$  17.38$
|652>   Q  0.6645  18.3$  19.39$  11.14$
|653>   Q  0.6645  17.39$  19.03$  12.29$
|654>   Q  -1.3290  17.99$  18.87$  11.73$
|655>   Q  0.6645  19.99$  6.03$  10.37$
|656>   Q  0.6645  21.03$  4.85$  9.86$
|657>   Q  -1.3290  20.43$  5.48$  9.81$
|658> *
|659> 
|660>                          ****END OF INPUT****
================================================================================

                     *******************************
                     * Energy+Gradient Calculation *
                     *******************************

---------------------------------
CARTESIAN COORDINATES (ANGSTROEM)
---------------------------------
  C     10.940000   12.310000    9.490000
  H     10.630000   11.400000    8.940000
  H     11.570000   12.890000    8.840000
  C     11.470000   11.990000   10.880000
  H     12.500000   11.700000   10.730000
  H     11.480000   12.910000   11.480000
  C     10.680000   10.800000   11.470000
  H     10.050000   10.480000   10.730000
  H     10.160000   11.160000   12.360000
  C     11.590000    9.680000   11.970000
  H     12.540000   10.030000   12.200000
  H     11.880000    8.980000   11.120000
  O     11.120000    8.830000   13.060000
  H     10.200000    8.700000   12.980000
  O      9.620000   12.960000    9.710000
  H      9.310000   13.140000    8.790000
  O      8.690000   14.450000   11.920000
  H      9.110000   13.870000   11.240000
  H      9.020000   14.330000   12.810000
  O     15.410000    9.320000   11.320000
  H     15.230000    9.320000   12.280000
  H     14.670000    8.760000   11.040000
  O     12.600000   15.110000   14.030000
  H     13.220000   15.850000   14.070000
  H     12.910000   14.520000   13.300000
  O     13.020000   10.220000    7.600000
  H     12.300000    9.690000    7.270000
  H     13.680000    9.520000    7.510000
  O      8.890000    8.260000    8.840000
  H      9.320000    8.860000    8.250000
  H      8.490000    7.590000    8.280000
  O     13.180000    6.310000   11.940000
  H     13.370000    5.390000   12.130000
  H     12.210000    6.320000   11.950000
  O     12.300000   17.950000   12.940000
  H     12.410000   17.120000   12.430000
  H     11.370000   17.950000   13.250000
  O     14.330000   12.590000    7.310000
  H     13.620000   11.940000    7.270000
  H     14.790000   12.340000    8.090000
  O     12.720000   13.410000   16.260000
  H     12.550000   13.730000   15.360000
  H     12.770000   14.230000   16.760000
  O      6.590000    5.980000   10.660000
  H      6.950000    6.040000   11.580000
  H      7.150000    6.550000   10.070000
  O      6.340000   15.980000   11.360000
  H      7.000000   15.360000   11.690000
  H      5.510000   15.690000   11.790000
  O     15.100000    9.000000   14.010000
  H     14.310000    8.610000   14.370000
  H     15.720000    8.190000   13.860000
  O     12.580000    8.820000   15.660000
  H     12.530000    7.980000   16.160000
  H     12.140000    8.820000   14.800000
  O      7.890000    9.770000   13.150000
  H      7.450000   10.600000   13.360000
  H      7.770000    9.840000   12.220000
  O     12.430000   15.710000   10.880000
  H     12.930000   15.600000   10.080000
  H     11.520000   15.640000   10.520000
  O     10.580000    9.320000    6.420000
  H     10.030000   10.120000    6.270000
  H     10.190000    8.710000    5.720000
  O     14.960000   11.880000   10.020000
  H     14.360000   12.280000   10.640000
  H     15.120000   11.000000   10.240000
  O     14.770000    8.290000    6.580000
  H     14.440000    8.490000    5.680000
  H     15.520000    7.690000    6.510000
  O      8.380000    5.860000    7.290000
  H      8.900000    5.210000    7.710000
  H      7.600000    5.410000    6.950000
  O     14.210000   13.370000   12.580000
  H     14.910000   13.870000   12.190000
  H     14.620000   12.670000   13.100000
  O     10.440000    6.830000   10.740000
  H      9.890000    7.250000   10.110000
  H     11.020000    6.270000   10.260000
  O      8.620000    7.740000    5.110000
  H      8.500000    7.160000    5.890000
  H      8.960000    7.080000    4.460000
  O     17.910000    8.920000   10.410000
  H     16.990000    9.120000   10.580000
  H     18.090000    9.200000    9.490000
  O      8.660000   13.360000    7.060000
  H      8.110000   12.570000    7.190000
  H      8.120000   13.970000    6.560000
  O     16.470000   11.360000   13.890000
  H     15.920000   10.630000   14.190000
  H     16.300000   12.140000   14.470000
  O      7.550000   10.110000   10.260000
  H      7.230000    9.290000    9.890000
  H      7.720000   10.620000    9.440000
  O      8.890000    8.410000   15.560000
  H      8.280000    7.670000   15.880000
  H      8.440000    8.760000   14.750000
  O     10.030000   16.480000   10.110000
  H      9.810000   16.560000    9.200000
  H      9.240000   16.000000   10.490000
  O     16.600000   10.250000    5.890000
  H     16.800000   11.240000    5.950000
  H     15.860000    9.990000    6.510000
  O     13.700000    7.870000    9.800000
  H     14.360000    7.470000    9.230000
  H     13.440000    7.210000   10.510000
  O     10.060000   14.960000   14.770000
  H      9.880000   14.290000   15.480000
  H     11.040000   15.090000   14.580000
  Q     14.300000    0.990000   16.540000
  Q     13.440000    2.060000   15.840000
  Q     13.690000    1.570000   16.480000
  Q      3.460000   18.510000   10.530000
  Q      2.570000   18.560000    9.330000
  Q      3.220000   18.780000    9.780000
  Q     18.220000   12.180000    1.560000
  Q     18.120000   12.290000    2.960000
  Q     17.880000   11.950000    2.260000
  Q     18.090000    8.520000   15.780000
  Q     18.000000    7.110000   16.380000
  Q     18.070000    7.670000   15.750000
  Q     10.170000   17.580000    7.170000
  Q     11.490000   18.150000    6.990000
  Q     10.970000   17.560000    7.280000
  Q      2.880000   17.930000    4.530000
  Q      3.910000   17.260000    3.570000
  Q      3.270000   17.790000    3.770000
  Q     17.800000    3.290000    6.220000
  Q     17.340000    3.710000    7.580000
  Q     17.300000    3.730000    6.750000
  Q      6.120000   12.650000   14.460000
  Q      7.620000   12.620000   14.670000
  Q      6.900000   12.380000   14.270000
  Q      5.880000    1.050000   12.360000
  Q      5.840000    0.570000   13.790000
  Q      6.100000    1.060000   13.170000
  Q      7.490000    4.430000    4.490000
  Q      6.650000    5.760000    4.440000
  Q      7.010000    5.030000    4.120000
  Q     10.710000   10.280000    0.860000
  Q      9.530000    9.260000    0.700000
  Q      9.930000   10.020000    0.600000
  Q     11.990000   16.160000    5.730000
  Q     13.150000   15.510000    5.050000
  Q     12.420000   15.870000    5.100000
  Q      4.020000   15.220000    2.580000
  Q      4.810000   15.120000    3.770000
  Q      4.670000   15.440000    3.030000
  Q     13.420000    3.920000    8.400000
  Q     14.240000    2.690000    7.860000
  Q     13.870000    3.460000    7.840000
  Q      4.690000   11.930000    6.100000
  Q      4.260000   11.520000    4.740000
  Q      4.300000   12.050000    5.370000
  Q      5.250000   12.230000   19.940000
  Q      6.200000   11.210000   20.630000
  Q      5.450000   11.500000   20.340000
  Q     12.740000    2.060000   18.280000
  Q     11.940000    0.960000   18.960000
  Q     12.130000    1.740000   18.790000
  Q     11.970000   18.290000    1.280000
  Q     11.220000   17.050000    1.970000
  Q     11.430000   17.600000    1.360000
  Q     18.100000    9.900000    7.080000
  Q     19.050000   10.590000    7.970000
  Q     18.690000    9.910000    7.660000
  Q      1.550000   14.410000    8.490000
  Q      2.950000   14.110000    8.300000
  Q      2.160000   14.100000    8.070000
  Q     12.640000   16.220000    8.020000
  Q     13.320000   15.110000    7.390000
  Q     13.230000   15.660000    7.990000
  Q     15.170000    5.400000   16.120000
  Q     16.050000    4.320000   16.770000
  Q     15.590000    5.010000   16.760000
  Q     14.320000    2.940000    5.170000
  Q     15.700000    3.340000    5.520000
  Q     15.090000    3.120000    4.990000
  Q     21.150000    8.520000   13.660000
  Q     20.290000    7.600000   12.620000
  Q     21.010000    7.920000   13.030000
  Q     10.960000    1.510000    7.100000
  Q      9.750000    1.860000    8.160000
  Q     10.370000    2.000000    7.530000
  Q      3.880000   13.950000   15.290000
  Q      5.080000   14.780000   15.110000
  Q      4.620000   14.070000   15.010000
  Q      6.280000   19.380000   12.920000
  Q      5.540000   19.870000   14.270000
  Q      5.810000   19.320000   13.660000
  Q      3.120000    4.490000   10.760000
  Q      2.060000    5.440000   11.280000
  Q      2.520000    4.750000   11.260000
  Q      4.130000   14.280000   19.200000
  Q      4.650000   13.210000   18.190000
  Q      4.680000   13.700000   18.870000
  Q     18.540000   13.770000   10.760000
  Q     19.230000   14.910000   11.690000
  Q     18.970000   14.130000   11.450000
  Q     17.170000   10.350000    2.840000
  Q     16.800000    9.450000    4.030000
  Q     16.770000    9.710000    3.230000
  Q     10.870000   13.700000   20.540000
  Q     11.320000   15.250000   20.800000
  Q     10.870000   14.490000   20.870000
  Q     12.910000   20.460000   14.800000
  Q     13.080000   19.250000   13.770000
  Q     13.290000   19.790000   14.410000
  Q     18.170000   18.890000   16.090000
  Q     16.810000   18.690000   15.290000
  Q     17.540000   19.090000   15.490000
  Q      5.750000    7.270000    7.810000
  Q      5.210000    8.550000    8.420000
  Q      5.740000    7.890000    8.370000
  Q      3.660000    9.510000   11.200000
  Q      4.240000   10.840000   11.060000
  Q      3.630000   10.310000   11.020000
  Q     17.770000   16.930000    2.730000
  Q     17.890000   15.390000    2.790000
  Q     17.760000   16.170000    3.130000
  Q      7.320000    4.220000   10.480000
  Q      7.250000    3.150000    9.310000
  Q      7.560000    3.550000   10.020000
  Q      8.810000    7.030000    1.890000
  Q      8.470000    7.070000    0.430000
  Q      8.640000    7.430000    1.170000
  Q     15.210000   15.750000    8.580000
  Q     16.180000   14.490000    9.020000
  Q     15.920000   15.320000    8.790000
  Q     18.170000   10.450000   17.440000
  Q     17.700000   10.880000   16.100000
  Q     18.190000   10.490000   16.610000
  Q     15.260000   17.370000   16.090000
  Q     14.360000   18.260000   15.190000
  Q     14.930000   17.650000   15.370000
  Q      8.190000   12.240000   20.420000
  Q      8.890000   10.950000   21.080000
  Q      8.400000   11.400000   20.470000
  Q     11.170000   17.920000   16.060000
  Q     12.340000   18.790000   16.490000
  Q     11.820000   18.140000   16.520000
  Q     19.730000   15.780000    7.320000
  Q     18.900000   15.930000    8.540000
  Q     19.460000   15.570000    8.070000
  Q     16.390000    6.870000   19.510000
  Q     16.430000    6.240000   18.150000
  Q     16.610000    6.830000   18.690000
  Q     12.390000   11.370000    3.700000
  Q     12.900000   11.630000    5.160000
  Q     12.970000   11.570000    4.330000
  Q      6.220000   18.740000    9.090000
  Q      4.610000   18.720000    8.690000
  Q      5.470000   18.630000    8.570000
  Q      3.700000    4.980000   17.530000
  Q      4.810000    4.330000   16.510000
  Q      4.350000    4.930000   16.940000
  Q     11.800000   22.320000   10.920000
  Q     12.410000   20.950000   10.800000
  Q     11.810000   21.510000   10.740000
  Q      6.540000   16.300000    5.280000
  Q      5.970000   15.300000    6.280000
  Q      6.440000   15.570000    5.640000
  Q      6.590000   10.360000    7.450000
  Q      7.590000   10.950000    6.430000
  Q      7.270000   10.790000    7.200000
  Q     15.840000   14.420000   14.280000
  Q     15.060000   13.850000   15.440000
  Q     15.700000   13.930000   14.920000
  Q     17.030000   12.470000    9.890000
  Q     17.550000   12.930000    8.430000
  Q     17.500000   12.890000    9.300000
  Q      4.930000   20.670000    8.790000
  Q      3.770000   21.460000    8.250000
  Q      4.570000   21.320000    8.420000
  Q      3.040000    7.340000    4.420000
  Q      2.850000    8.440000    5.330000
  Q      3.270000    8.040000    4.780000
  Q     17.140000    6.620000    5.020000
  Q     16.790000    5.870000    6.290000
  Q     16.950000    6.560000    5.830000
  Q      3.390000   10.140000   13.440000
  Q      2.580000   11.200000   13.980000
  Q      3.050000   10.560000   14.050000
  Q      6.080000    8.380000   17.590000
  Q      4.650000    7.680000   17.590000
  Q      5.300000    8.160000   17.270000
  Q     16.320000   16.240000   18.410000
  Q     16.840000   17.460000   17.770000
  Q     16.260000   16.860000   17.860000
  Q      3.850000   10.400000    8.910000
  Q      3.710000    9.820000    7.520000
  Q      4.140000   10.050000    8.190000
  Q      4.240000   18.770000   13.090000
  Q      2.970000   18.060000   12.680000
  Q      3.570000   18.630000   12.600000
  Q      3.660000   14.170000   11.480000
  Q      3.890000   14.300000   13.030000
  Q      3.790000   14.590000   12.210000
  Q     12.260000   -0.410000    8.570000
  Q     13.430000    0.290000    7.850000
  Q     12.650000    0.000000    7.950000
  Q      9.840000   18.930000   19.730000
  Q     10.360000   18.610000   18.300000
  Q      9.970000   19.050000   18.870000
  Q     13.680000    4.810000    6.150000
  Q     13.800000    5.460000    4.810000
  Q     13.500000    5.360000    5.580000
  Q      4.690000   17.210000   15.520000
  Q      5.640000   17.230000   14.350000
  Q      5.230000   16.890000   14.980000
  Q     19.680000   12.670000    8.160000
  Q     20.250000   11.640000    9.180000
  Q     20.210000   12.050000    8.430000
  Q      6.350000    8.910000   13.940000
  Q      5.610000    8.150000   15.020000
  Q      6.040000    8.220000   14.290000
  Q     20.430000   10.660000   14.340000
  Q     20.320000    9.770000   15.740000
  Q     20.570000   10.000000   14.920000
  Q     14.860000   13.870000    6.220000
  Q     14.960000   14.150000    4.760000
  Q     14.970000   14.360000    5.560000
  Q      9.380000   11.500000    2.120000
  Q      8.740000   12.700000    2.400000
  Q      8.970000   11.960000    2.620000
  Q      9.000000    3.130000    6.060000
  Q      7.500000    2.690000    5.890000
  Q      8.280000    2.960000    5.630000
  Q     21.110000   10.030000   10.520000
  Q     19.650000   10.190000   11.010000
  Q     20.370000   10.410000   10.630000
  Q      5.370000    3.430000   14.800000
  Q      6.490000    2.550000   15.430000
  Q      5.880000    3.110000   15.430000
  Q      9.660000   20.110000    6.740000
  Q     11.100000   20.120000    6.210000
  Q     10.270000   20.180000    6.160000
  Q     11.660000   11.970000   16.880000
  Q     12.090000   10.530000   16.330000
  Q     11.660000   11.110000   16.830000
  Q      4.460000    7.760000   12.610000
  Q      3.110000    7.380000   11.860000
  Q      3.870000    7.790000   12.000000
  Q     12.260000    3.400000   14.380000
  Q     12.940000    2.530000   13.360000
  Q     12.880000    2.890000   14.080000
  Q     13.930000   19.420000   10.330000
  Q     13.170000   18.910000   11.610000
  Q     13.580000   19.470000   11.130000
  Q      4.300000    9.220000    3.930000
  Q      5.820000    9.700000    3.730000
  Q      4.950000    9.720000    3.610000
  Q      8.830000    3.130000   12.570000
  Q      7.870000    1.870000   12.730000
  Q      8.620000    2.320000   12.780000
  Q     17.140000   16.680000    9.160000
  Q     17.890000   17.640000   10.080000
  Q     17.650000   17.310000    9.340000
  Q     13.840000    9.940000    4.090000
  Q     14.550000    8.840000    3.380000
  Q     13.990000    9.130000    3.900000
  Q     13.040000    6.030000   14.740000
  Q     14.150000    6.440000   13.810000
  Q     13.820000    6.210000   14.530000
  Q      5.710000   18.610000    6.150000
  Q      6.810000   18.360000    4.980000
  Q      6.020000   18.490000    5.320000
  Q     11.970000    9.340000    2.250000
  Q     12.950000   10.350000    1.790000
  Q     12.220000   10.110000    2.050000
  Q      1.270000    9.490000    8.970000
  Q      1.990000    9.710000   10.280000
  Q      1.340000    9.450000    9.790000
  Q      5.740000   16.850000    8.540000
  Q      6.280000   15.740000    9.450000
  Q      6.030000   16.060000    8.730000
  Q     10.630000    6.640000    3.360000
  Q     10.120000    5.230000    3.250000
  Q     10.030000    6.020000    3.410000
  Q      8.060000   14.470000   19.460000
  Q      6.850000   13.680000   18.990000
  Q      7.680000   13.810000   19.120000
  Q      5.820000    2.820000    7.600000
  Q      5.570000    4.040000    8.360000
  Q      6.020000    3.580000    7.860000
  Q     16.330000   13.280000   17.810000
  Q     17.040000   14.370000   17.050000
  Q     16.860000   13.910000   17.720000
  Q     15.130000    8.990000   16.490000
  Q     15.710000    8.740000   17.850000
  Q     15.160000    9.090000   17.320000
  Q      9.760000   11.670000    4.510000
  Q      9.740000   12.460000    5.820000
  Q      9.970000   11.860000    5.310000
  Q      2.570000   15.950000   12.640000
  Q      1.770000   16.650000   13.700000
  Q      2.070000   16.530000   12.940000
  Q      8.540000   21.030000    8.400000
  Q      9.030000   19.610000    8.850000
  Q      8.610000   20.200000    8.360000
  Q      8.000000    7.160000   17.980000
  Q      8.600000    8.430000   18.230000
  Q      7.990000    7.920000   18.300000
  Q     10.950000   16.110000    3.880000
  Q      9.880000   15.570000    2.850000
  Q     10.230000   16.150000    3.390000
  Q     11.420000    3.370000    8.700000
  Q     11.730000    4.940000    8.900000
  Q     11.590000    4.110000    9.130000
  Q     13.440000    8.470000   17.820000
  Q     13.720000    7.030000   18.430000
  Q     13.240000    7.660000   18.090000
  Q      6.980000    2.680000   18.620000
  Q      6.980000    1.240000   18.840000
  Q      6.630000    1.940000   18.650000
  Q     10.970000    4.600000   19.890000
  Q     12.320000    4.030000   20.210000
  Q     11.650000    4.540000   20.340000
  Q     13.220000   20.290000    6.210000
  Q     13.090000   19.090000    5.290000
  Q     12.910000   19.510000    6.000000
  Q     19.620000    3.690000   12.260000
  Q     18.660000    3.840000   10.920000
  Q     18.880000    3.710000   11.790000
  Q     11.870000   13.840000    0.840000
  Q     12.840000   14.810000    1.300000
  Q     12.570000   14.030000    1.190000
  Q      8.090000   18.350000    7.390000
  Q      7.620000   16.890000    7.610000
  Q      8.160000   17.510000    7.410000
  Q      9.440000   10.090000   19.470000
  Q     10.590000    9.810000   18.450000
  Q     10.110000    9.620000   19.110000
  Q     12.380000    6.250000   -0.290000
  Q     12.820000    7.760000   -0.250000
  Q     12.740000    6.960000    0.040000
  Q     18.530000   11.430000   13.360000
  Q     19.230000   12.740000   12.830000
  Q     19.180000   11.940000   13.160000
  Q      6.230000    6.170000   16.850000
  Q      7.110000    5.120000   16.050000
  Q      6.950000    5.860000   16.440000
  Q     10.710000    2.620000   17.910000
  Q     10.650000    3.460000   16.650000
  Q     10.330000    3.010000   17.270000
  Q     12.870000   16.550000   17.330000
  Q     14.180000   16.040000   17.650000
  Q     13.390000   15.930000   17.500000
  Q      2.480000    7.180000   15.430000
  Q      3.430000    5.960000   15.420000
  Q      2.850000    6.490000   15.120000
  Q      8.140000   15.420000    1.350000
  Q      9.250000   14.710000    0.720000
  Q      8.700000   14.810000    1.310000
  Q     15.070000   19.970000   12.290000
  Q     15.590000   20.410000   13.690000
  Q     15.650000   20.200000   12.870000
  Q     12.490000    7.090000    2.000000
  Q     12.750000    7.910000    3.410000
  Q     12.390000    7.310000    2.900000
  Q      2.120000    8.540000   16.680000
  Q      1.780000    9.250000   15.230000
  Q      1.680000    8.740000   15.920000
  Q      5.100000    7.000000    5.710000
  Q      4.840000    5.710000    6.510000
  Q      5.310000    6.300000    6.140000
  Q     17.300000    6.990000   14.260000
  Q     16.430000    5.920000   13.460000
  Q     16.770000    6.700000   13.640000
  Q      7.580000    4.800000   17.830000
  Q      8.630000    3.750000   18.250000
  Q      7.990000    4.310000   18.360000
  Q     12.250000    7.200000    8.230000
  Q     12.450000    6.340000    7.100000
  Q     12.190000    6.460000    7.880000
  Q      8.610000    1.970000   14.530000
  Q      9.160000    2.010000   16.030000
  Q      8.690000    1.710000   15.350000
  Q     15.960000   19.090000    9.330000
  Q     15.100000   19.690000    8.200000
  Q     15.370000   19.570000    9.030000
  Q     16.390000    2.020000   16.420000
  Q     17.660000    2.680000   15.830000
  Q     16.840000    2.660000   16.050000
  Q     16.310000    3.610000   14.170000
  Q     17.300000    3.920000   12.890000
  Q     16.560000    3.900000   13.400000
  Q     10.550000   19.940000   10.800000
  Q     10.140000   18.460000   10.640000
  Q      9.990000   19.300000   10.730000
  Q     17.570000    4.590000    9.420000
  Q     18.990000    4.680000    9.180000
  Q     18.280000    4.240000    9.240000
  Q     19.360000   15.950000   13.900000
  Q     18.400000   17.070000   13.350000
  Q     18.810000   16.320000   13.350000
  Q     15.180000    3.550000   11.840000
  Q     13.990000    3.400000   10.820000
  Q     14.640000    3.780000   11.200000
  Q      9.260000   16.420000   15.080000
  Q      8.890000   17.860000   14.730000
  Q      8.930000   17.180000   15.220000
  Q     13.820000   12.590000   20.990000
  Q     13.890000   13.370000   22.230000
  Q     14.250000   12.890000   21.640000
  Q      7.150000   17.140000   18.470000
  Q      7.380000   16.950000   16.940000
  Q      6.960000   17.210000   17.650000
  Q      8.710000    5.510000   13.230000
  Q      9.820000    5.730000   12.220000
  Q      9.490000    5.360000   12.890000
  Q      9.530000   19.700000   13.950000
  Q      9.870000   19.230000   12.540000
  Q      9.760000   19.100000   13.410000
  Q     14.840000   11.030000   17.120000
  Q     14.070000   12.290000   16.930000
  Q     14.750000   11.840000   16.950000
  Q      9.120000   19.160000    4.560000
  Q      9.030000   17.760000    4.040000
  Q      8.720000   18.500000    4.240000
  Q     16.580000   17.000000    4.490000
  Q     15.540000   16.530000    5.530000
  Q     15.900000   17.080000    5.020000
  Q      4.730000    3.000000   12.440000
  Q      3.620000    4.040000   12.750000
  Q      4.340000    3.620000   12.850000
  Q     10.690000    5.210000   14.460000
  Q     11.000000    5.660000   16.010000
  Q     11.120000    5.280000   15.240000
  Q      7.970000    6.900000   19.990000
  Q      8.090000    5.430000   20.180000
  Q      8.060000    6.230000   20.460000
  Q     15.730000    9.100000   21.470000
  Q     16.460000    9.630000   20.350000
  Q     15.980000    9.080000   20.720000
  Q     19.690000   12.910000   15.200000
  Q     20.110000   12.830000   16.680000
  Q     20.010000   13.180000   15.920000
  Q      2.010000   13.370000   16.460000
  Q      1.880000   13.100000   14.920000
  Q      2.130000   13.510000   15.640000
  Q      2.840000   13.500000    4.930000
  Q      1.950000   14.140000    5.970000
  Q      2.210000   13.990000    5.180000
  Q      1.590000   10.320000    6.850000
  Q      1.260000    8.720000    6.840000
  Q      1.780000    9.430000    6.860000
  Q     14.560000   12.660000    3.400000
  Q     15.840000   13.010000    2.760000
  Q     15.140000   13.180000    3.170000
  Q      4.430000   20.760000    6.470000
  Q      4.690000   19.820000    5.330000
  Q      4.220000   20.340000    5.800000
  Q     15.710000   10.280000    1.670000
  Q     15.110000   11.210000    0.640000
  Q     15.110000   10.540000    1.140000
  Q     10.620000    2.150000   12.190000
  Q     11.240000    3.100000   10.970000
  Q     11.270000    2.520000   11.630000
  Q      6.650000    6.420000   13.620000
  Q      6.210000    5.010000   12.950000
  Q      6.760000    5.630000   13.260000
  Q     18.050000    6.830000   12.360000
  Q     18.620000    7.710000   11.220000
  Q     18.650000    7.070000   11.790000
  Q      7.750000    9.410000    4.680000
  Q      7.960000   10.720000    4.080000
  Q      7.510000   10.160000    4.520000
  Q     14.680000   19.310000    3.290000
  Q     14.210000   17.800000    3.520000
  Q     14.110000   18.670000    3.350000
  Q      4.790000   10.530000   17.350000
  Q      4.260000   10.920000   15.970000
  Q      4.440000   11.010000   16.810000
  Q      6.520000   12.660000   11.900000
  Q      6.510000   11.380000   11.140000
  Q      6.170000   12.080000   11.380000
  Q      9.210000   11.970000   16.330000
  Q      8.650000   13.220000   17.070000
  Q      9.070000   12.790000   16.510000
  Q     21.910000   12.080000   11.090000
  Q     20.780000   13.050000   11.300000
  Q     21.580000   12.840000   11.240000
  Q     16.500000    6.720000   10.400000
  Q     15.500000    5.600000   10.050000
  Q     16.150000    6.110000    9.950000
  Q      7.300000    9.240000    1.170000
  Q      6.070000   10.190000    1.580000
  Q      6.520000    9.660000    1.100000
  Q      7.710000   18.720000   11.230000
  Q      6.440000   17.750000   10.980000
  Q      6.990000   18.420000   10.850000
  Q     16.840000   15.660000   12.870000
  Q     15.700000   16.530000   13.650000
  Q     16.050000   15.870000   13.210000
  Q     13.090000    9.750000   20.360000
  Q     11.590000    9.340000   20.410000
  Q     12.360000    9.500000   20.720000
  Q     11.750000   11.440000   20.170000
  Q     12.050000   11.940000   18.890000
  Q     12.120000   11.990000   19.710000
  Q     17.070000   13.370000    6.010000
  Q     18.390000   12.640000    6.300000
  Q     17.550000   12.820000    6.390000
  Q     15.880000   18.810000    5.970000
  Q     15.350000   20.310000    5.700000
  Q     15.750000   19.670000    6.140000
  Q      4.950000    5.570000    9.780000
  Q      3.850000    5.290000    8.690000
  Q      4.340000    5.130000    9.330000
  Q      4.900000   14.500000    8.890000
  Q      4.870000   13.110000    9.500000
  Q      4.560000   13.810000    9.210000
  Q     -0.060000   11.550000    6.780000
  Q      1.230000   12.440000    7.040000
  Q      0.720000   11.860000    6.660000
  Q      9.880000    0.610000    9.880000
  Q      8.580000    1.520000   10.110000
  Q      9.120000    0.980000    9.680000
  Q      6.200000   16.090000    1.790000
  Q      6.690000   17.430000    1.340000
  Q      6.600000   16.620000    1.290000
  Q     10.900000    7.220000   17.870000
  Q      9.960000    7.320000   16.770000
  Q     10.320000    6.910000   17.380000
  Q     18.300000   19.390000   11.140000
  Q     17.390000   19.030000   12.290000
  Q     17.990000   18.870000   11.730000
  Q     19.990000    6.030000   10.370000
  Q     21.030000    4.850000    9.860000
  Q     20.430000    5.480000    9.810000

----------------------------
CARTESIAN COORDINATES (A.U.)
----------------------------
  NO LB      ZA    FRAG     MASS         X           Y           Z
   0 C     6.0000    0    12.011   20.673604   23.262529   17.933501
   1 H     1.0000    0     1.008   20.087789   21.542878   16.894152
   2 H     1.0000    0     1.008   21.864131   24.358570   16.705179
   3 C     6.0000    0    12.011   21.675159   22.657816   20.560220
   4 H     1.0000    0     1.008   23.621577   22.109796   20.276761
   5 H     1.0000    0     1.008   21.694056   24.396364   21.694056
   6 C     6.0000    0    12.011   20.182275   20.409042   21.675159
   7 H     1.0000    0     1.008   18.991748   19.804330   20.276761
   8 H     1.0000    0     1.008   19.199618   21.089344   23.357015
   9 C     6.0000    0    12.011   21.901926   18.292549   22.620022
  10 H     1.0000    0     1.008   23.697166   18.953953   23.054659
  11 H     1.0000    0     1.008   22.449946   16.969741   21.013755
  12 O     8.0000    0    15.999   21.013755   16.686282   24.679823
  13 H     1.0000    0     1.008   19.275207   16.440617   24.528645
  14 O     8.0000    0    15.999   18.179165   24.490851   18.349241
  15 H     1.0000    0     1.008   17.593350   24.831001   16.610693
  16 O     8.0000    0    15.999   16.421720   27.306543   22.525536
  17 H     1.0000    0     1.008   17.215405   26.210501   21.240522
  18 H     1.0000    0     1.008   17.045330   27.079775   24.207392
  19 O     8.0000    0    15.999   29.120680   17.612248   21.391700
  20 H     1.0000    0     1.008   28.780529   17.612248   23.205837
  21 H     1.0000    0     1.008   27.722282   16.554001   20.862577
  22 O     8.0000    0    15.999   23.810549   28.553762   26.512858
  23 H     1.0000    0     1.008   24.982179   29.952159   26.588447
  24 H     1.0000    0     1.008   24.396364   27.438823   25.133358
  25 O     8.0000    0    15.999   24.604234   19.313001   14.361919
  26 H     1.0000    0     1.008   23.243631   18.311446   13.738309
  27 H     1.0000    0     1.008   25.851454   17.990193   14.191843
  28 O     8.0000    0    15.999   16.799665   15.609138   16.705179
  29 H     1.0000    0     1.008   17.612248   16.742974   15.590241
  30 H     1.0000    0     1.008   16.043775   14.343021   15.646932
  31 O     8.0000    0    15.999   24.906590   11.924172   22.563330
  32 H     1.0000    0     1.008   25.265638   10.185624   22.922378
  33 H     1.0000    0     1.008   23.073556   11.943069   22.582227
  34 O     8.0000    0    15.999   23.243631   33.920584   24.453056
  35 H     1.0000    0     1.008   23.451501   32.352111   23.489296
  36 H     1.0000    0     1.008   21.486186   33.920584   25.038871
  37 O     8.0000    0    15.999   27.079775   23.791652   13.813898
  38 H     1.0000    0     1.008   25.738070   22.563330   13.738309
  39 H     1.0000    0     1.008   27.949050   23.319220   15.287884
  40 O     8.0000    0    15.999   24.037316   25.341227   30.726947
  41 H     1.0000    0     1.008   23.716063   25.945940   29.026193
  42 H     1.0000    0     1.008   24.131803   26.890803   31.671810
  43 O     8.0000    0    15.999   12.453295   11.300562   20.144481
  44 H     1.0000    0     1.008   13.133597   11.413946   21.883029
  45 H     1.0000    0     1.008   13.511542   12.377706   19.029542
  46 O     8.0000    0    15.999   11.980864   30.197824   21.467289
  47 H     1.0000    0     1.008   13.228083   29.026193   22.090899
  48 H     1.0000    0     1.008   10.412391   29.649803   22.279871
  49 O     8.0000    0    15.999   28.534865   17.007535   26.475063
  50 H     1.0000    0     1.008   27.041981   16.270542   27.155365
  51 H     1.0000    0     1.008   29.706495   15.476857   26.191604
  52 O     8.0000    0    15.999   23.772755   16.667385   29.593111
  53 H     1.0000    0     1.008   23.678268   15.080015   30.537974
  54 H     1.0000    0     1.008   22.941275   16.667385   27.967947
  55 O     8.0000    0    15.999   14.909939   18.462624   24.849899
  56 H     1.0000    0     1.008   14.078460   20.031097   25.246741
  57 H     1.0000    0     1.008   14.683172   18.594905   23.092453
  58 O     8.0000    0    15.999   23.489296   29.687598   20.560220
  59 H     1.0000    0     1.008   24.434159   29.479728   19.048439
  60 H     1.0000    0     1.008   21.769645   29.555317   19.879919
  61 O     8.0000    0    15.999   19.993302   17.612248   12.132042
  62 H     1.0000    0     1.008   18.953953   19.124028   11.848583
  63 H     1.0000    0     1.008   19.256309   16.459515   10.809233
  64 O     8.0000    0    15.999   28.270303   22.449946   18.935056
  65 H     1.0000    0     1.008   27.136467   23.205837   20.106686
  66 H     1.0000    0     1.008   28.572659   20.786987   19.350796
  67 O     8.0000    0    15.999   27.911255   15.665830   12.434398
  68 H     1.0000    0     1.008   27.287645   16.043775   10.733644
  69 H     1.0000    0     1.008   29.328550   14.531994   12.302117
  70 O     8.0000    0    15.999   15.835905   11.073795   13.776104
  71 H     1.0000    0     1.008   16.818563    9.845473   14.569788
  72 H     1.0000    0     1.008   14.361919   10.223418   13.133597
  73 O     8.0000    0    15.999   26.853008   25.265638   23.772755
  74 H     1.0000    0     1.008   28.175817   26.210501   23.035762
  75 H     1.0000    0     1.008   27.627796   23.942830   24.755412
  76 O     8.0000    0    15.999   19.728741   12.906829   20.295659
  77 H     1.0000    0     1.008   18.689391   13.700514   19.105131
  78 H     1.0000    0     1.008   20.824782   11.848583   19.388590
  79 O     8.0000    0    15.999   16.289439   14.626480    9.656501
  80 H     1.0000    0     1.008   16.062672   13.530439   11.130487
  81 H     1.0000    0     1.008   16.931946   13.379261    8.428179
  82 O     8.0000    0    15.999   33.844995   16.856357   19.672049
  83 H     1.0000    0     1.008   32.106447   17.234302   19.993302
  84 H     1.0000    0     1.008   34.185146   17.385480   17.933501
  85 O     8.0000    0    15.999   16.365028   25.246741   13.341467
  86 H     1.0000    0     1.008   15.325679   23.753858   13.587131
  87 H     1.0000    0     1.008   15.344576   26.399474   12.396603
  88 O     8.0000    0    15.999   31.123789   21.467289   26.248296
  89 H     1.0000    0     1.008   30.084440   20.087789   26.815214
  90 H     1.0000    0     1.008   30.802536   22.941275   27.344337
  91 O     8.0000    0    15.999   14.267432   19.105131   19.388590
  92 H     1.0000    0     1.008   13.662720   17.555556   18.689391
  93 H     1.0000    0     1.008   14.588686   20.068892   17.839015
  94 O     8.0000    0    15.999   16.799665   15.892597   29.404139
  95 H     1.0000    0     1.008   15.646932   14.494199   30.008851
  96 H     1.0000    0     1.008   15.949289   16.554001   27.873460
  97 O     8.0000    0    15.999   18.953953   31.142687   19.105131
  98 H     1.0000    0     1.008   18.538213   31.293865   17.385480
  99 H     1.0000    0     1.008   17.461069   30.235618   19.823227
 100 O     8.0000    0    15.999   31.369454   19.369693   11.130487
 101 H     1.0000    0     1.008   31.747399   21.240522   11.243870
 102 H     1.0000    0     1.008   29.971056   18.878364   12.302117
 103 O     8.0000    0    15.999   25.889248   14.872145   18.519316
 104 H     1.0000    0     1.008   27.136467   14.116254   17.442172
 105 H     1.0000    0     1.008   25.397919   13.624925   19.861022
 106 O     8.0000    0    15.999   19.010645   28.270303   27.911255
 107 H     1.0000    0     1.008   18.670494   27.004186   29.252961
 108 H     1.0000    0     1.008   20.862577   28.515967   27.552207
 109 Q     0.6645    0     0.000   27.023084    1.870829   31.256070
 110 Q     0.6645    0     0.000   25.397919    3.892836   29.933262
 111 Q    -1.3290    0     0.000   25.870351    2.966870   31.142687
 112 Q     0.6645    0     0.000    6.538452   34.978831   19.898816
 113 Q     0.6645    0     0.000    4.856596   35.073317   17.631145
 114 Q    -1.3290    0     0.000    6.084918   35.489057   18.481522
 115 Q     0.6645    0     0.000   34.430810   23.016864    2.947973
 116 Q     0.6645    0     0.000   34.241838   23.224734    5.593589
 117 Q    -1.3290    0     0.000   33.788303   22.582227    4.270781
 118 Q     0.6645    0     0.000   34.185146   16.100467   29.819878
 119 Q     0.6645    0     0.000   34.015070   13.435953   30.953714
 120 Q    -1.3290    0     0.000   34.147351   14.494199   29.763187
 121 Q     0.6645    0     0.000   19.218515   33.221385   13.549336
 122 Q     0.6645    0     0.000   21.712953   34.298529   13.209186
 123 Q    -1.3290    0     0.000   20.730296   33.183591   13.757206
 124 Q     0.6645    0     0.000    5.442411   33.882790    8.560459
 125 Q     0.6645    0     0.000    7.388829   32.616673    6.746322
 126 Q    -1.3290    0     0.000    6.179404   33.618228    7.124268
 127 Q     0.6645    0     0.000   33.637125    6.217199   11.754097
 128 Q     0.6645    0     0.000   32.767851    7.010884   14.324124
 129 Q    -1.3290    0     0.000   32.692262    7.048678   12.755651
 130 Q     0.6645    0     0.000   11.565124   23.905036   27.325440
 131 Q     0.6645    0     0.000   14.399713   23.848344   27.722282
 132 Q    -1.3290    0     0.000   13.039110   23.394810   26.966392
 133 Q     0.6645    0     0.000   11.111590    1.984212   23.357015
 134 Q     0.6645    0     0.000   11.036001    1.077144   26.059323
 135 Q    -1.3290    0     0.000   11.527329    2.003110   24.887693
 136 Q     0.6645    0     0.000   14.154049    8.371487    8.484870
 137 Q     0.6645    0     0.000   12.566679   10.884823    8.390384
 138 Q    -1.3290    0     0.000   13.246980    9.505322    7.785672
 139 Q     0.6645    0     0.000   20.238967   19.426385    1.625164
 140 Q     0.6645    0     0.000   18.009090   17.498864    1.322808
 141 Q    -1.3290    0     0.000   18.764981   18.935056    1.133836
 142 Q     0.6645    0     0.000   22.657816   30.537974   10.828131
 143 Q     0.6645    0     0.000   24.849899   29.309652    9.543117
 144 Q    -1.3290    0     0.000   23.470399   29.989954    9.637603
 145 Q     0.6645    0     0.000    7.596699   28.761632    4.875493
 146 Q     0.6645    0     0.000    9.089583   28.572659    7.124268
 147 Q    -1.3290    0     0.000    8.825021   29.177372    5.725870
 148 Q     0.6645    0     0.000   25.360125    7.407726   15.873700
 149 Q     0.6645    0     0.000   26.909700    5.083363   14.853247
 150 Q    -1.3290    0     0.000   26.210501    6.538452   14.815453
 151 Q     0.6645    0     0.000    8.862816   22.544433   11.527329
 152 Q     0.6645    0     0.000    8.050233   21.769645    8.957302
 153 Q    -1.3290    0     0.000    8.125822   22.771200   10.147829
 154 Q     0.6645    0     0.000    9.921062   23.111351   37.681139
 155 Q     0.6645    0     0.000   11.716302   21.183830   38.985050
 156 Q    -1.3290    0     0.000   10.299007   21.731851   38.437030
 157 Q     0.6645    0     0.000   24.075111    3.892836   34.544194
 158 Q     0.6645    0     0.000   22.563330    1.814137   35.829207
 159 Q    -1.3290    0     0.000   22.922378    3.288123   35.507954
 160 Q     0.6645    0     0.000   22.620022   34.563091    2.418849
 161 Q     0.6645    0     0.000   21.202727   32.219831    3.722760
 162 Q    -1.3290    0     0.000   21.599570   33.259180    2.570028
 163 Q     0.6645    0     0.000   34.204043   18.708289   13.379261
 164 Q     0.6645    0     0.000   35.999283   20.012200   15.061117
 165 Q    -1.3290    0     0.000   35.318981   18.727186   14.475302
 166 Q     0.6645    0     0.000    2.929076   27.230954   16.043775
 167 Q     0.6645    0     0.000    5.574692   26.664036   15.684727
 168 Q    -1.3290    0     0.000    4.081808   26.645138   15.250090
 169 Q     0.6645    0     0.000   23.886138   30.651358   15.155604
 170 Q     0.6645    0     0.000   25.171152   28.553762   13.965076
 171 Q    -1.3290    0     0.000   25.001077   29.593111   15.098912
 172 Q     0.6645    0     0.000   28.667145   10.204521   30.462385
 173 Q     0.6645    0     0.000   30.330104    8.163617   31.690707
 174 Q    -1.3290    0     0.000   29.460830    9.467528   31.671810
 175 Q     0.6645    0     0.000   27.060878    5.555795    9.769884
 176 Q     0.6645    0     0.000   29.668700    6.311685   10.431288
 177 Q    -1.3290    0     0.000   28.515967    5.895946    9.429733
 178 Q     0.6645    0     0.000   39.967708   16.100467   25.813659
 179 Q     0.6645    0     0.000   38.342543   14.361919   23.848344
 180 Q    -1.3290    0     0.000   39.703146   14.966631   24.623132
 181 Q     0.6645    0     0.000   20.711398    2.853486   13.417056
 182 Q     0.6645    0     0.000   18.424830    3.514891   15.420165
 183 Q    -1.3290    0     0.000   19.596460    3.779452   14.229638
 184 Q     0.6645    0     0.000    7.332137   26.361680   28.893913
 185 Q     0.6645    0     0.000    9.599809   27.930152   28.553762
 186 Q    -1.3290    0     0.000    8.730535   26.588447   28.364789
 187 Q     0.6645    0     0.000   11.867480   36.622892   24.415262
 188 Q     0.6645    0     0.000   10.469083   37.548858   26.966392
 189 Q    -1.3290    0     0.000   10.979309   36.509509   25.813659
 190 Q     0.6645    0     0.000    5.895946    8.484870   20.333453
 191 Q     0.6645    0     0.000    3.892836   10.280110   21.316111
 192 Q    -1.3290    0     0.000    4.762110    8.976199   21.278316
 193 Q     0.6645    0     0.000    7.804569   26.985289   36.282742
 194 Q     0.6645    0     0.000    8.787227   24.963282   34.374118
 195 Q    -1.3290    0     0.000    8.843918   25.889248   35.659132
 196 Q     0.6645    0     0.000   35.035523   26.021529   20.333453
 197 Q     0.6645    0     0.000   36.339434   28.175817   22.090899
 198 Q    -1.3290    0     0.000   35.848105   26.701830   21.637364
 199 Q     0.6645    0     0.000   32.446598   19.558665    5.366822
 200 Q     0.6645    0     0.000   31.747399   17.857912    7.615596
 201 Q    -1.3290    0     0.000   31.690707   18.349241    6.103815
 202 Q     0.6645    0     0.000   20.541323   25.889248   38.814975
 203 Q     0.6645    0     0.000   21.391700   28.818324   39.306304
 204 Q    -1.3290    0     0.000   20.541323   27.382132   39.438584
 205 Q     0.6645    0     0.000   24.396364   38.663797   27.967947
 206 Q     0.6645    0     0.000   24.717618   36.377228   26.021529
 207 Q    -1.3290    0     0.000   25.114460   37.397680   27.230954
[...]
 341   Q   :    0.188627509   -0.012228365    0.205953334
 342   Q   :   -0.238331808   -0.129479416   -0.039599273
 343   Q   :    0.049368229    0.124150599   -0.167825641
 344   Q   :   -0.209381697    0.157502578    0.083848171
 345   Q   :    0.015653544   -0.139242312   -0.288045575
 346   Q   :    0.196339161   -0.017523302    0.195166068
 347   Q   :    0.081723298   -0.028941405   -0.229579728
 348   Q   :   -0.134435139   -0.194658179    0.148797226
 349   Q   :    0.047444113    0.212197165    0.078809573
 350   Q   :   -0.177055209   -0.142501625    0.101041885
 351   Q   :    0.251375886   -0.023073795    0.039303670
 352   Q   :   -0.073407418    0.164962098   -0.156452356
 353   Q   :    0.055867679    0.252018264   -0.070631987
 354   Q   :   -0.221331316   -0.119477567   -0.026512930
 355   Q   :    0.165826916   -0.132033172    0.079641090
 356   Q   :   -0.169713488   -0.215334497   -0.046400599
 357   Q   :    0.071929180    0.101666863    0.249394208
 358   Q   :    0.107550962    0.127799908   -0.207160029
 359   Q   :   -0.033803026    0.253757018    0.053572190
 360   Q   :    0.205733092   -0.103915878   -0.197530463
 361   Q   :   -0.162592682   -0.149271374    0.139960290
 362   Q   :   -0.280625355   -0.055744321    0.058754169
 363   Q   :    0.114507678    0.086742114   -0.269832003
 364   Q   :    0.170209354   -0.027521942    0.208246397
 365   Q   :   -0.081110298    0.034189001    0.236681876
 366   Q   :    0.237408358   -0.050866874   -0.083584065
 367   Q   :   -0.161507221    0.008832581   -0.159479114
 368   Q   :   -0.078534840   -0.274593786    0.062091167
 369   Q   :    0.274018850    0.075055074   -0.097584543
 370   Q   :   -0.193621952    0.198416149    0.037403457
 371   Q   :   -0.012277330    0.022161403   -0.311671756
 372   Q   :    0.216797226    0.081004483    0.140154532
 373   Q   :   -0.216398976   -0.109582223    0.170830746
 374   Q   :   -0.084140570    0.227590163   -0.049138605
 375   Q   :    0.085904681   -0.114642301    0.251851659
 376   Q   :    0.004590552   -0.125086813   -0.207827449
 377   Q   :    0.168358542    0.181750807   -0.017553748
 378   Q   :    0.050646630   -0.308523228   -0.070611109
 379   Q   :   -0.223734623    0.106867642    0.085624987
 380   Q   :    0.120477552    0.246819040    0.125786774
 381   Q   :   -0.269834540   -0.030034321   -0.035039260
 382   Q   :    0.152207784   -0.213608795   -0.092567320
 383   Q   :   -0.086118913   -0.280379967   -0.084035642
 384   Q   :   -0.176851101    0.150620747    0.178862289
 385   Q   :    0.266563368    0.129785965   -0.109202367
 386   Q   :   -0.194656849   -0.224064702    0.022181481
 387   Q   :    0.054009639    0.164500210   -0.245908477
 388   Q   :    0.146975676    0.060405580    0.227916486
 389   Q   :    0.001853456   -0.040073989   -0.288798561
 390   Q   :    0.194370235   -0.116197489    0.162888738
 391   Q   :   -0.184946740    0.154385434    0.125340967
 392   Q   :   -0.080481175   -0.065424530   -0.257079162
 393   Q   :   -0.093120253    0.217962311    0.177216060
 394   Q   :    0.182284981   -0.152305428    0.077528511
 395   Q   :    0.174246966   -0.208187975   -0.087742102
 396   Q   :   -0.100128850    0.035156141    0.290579874
 397   Q   :   -0.092347599    0.168928351   -0.198099566
 398   Q   :   -0.012003149    0.300885391    0.022173433
 399   Q   :    0.131198059   -0.172447837    0.137697515
 400   Q   :   -0.127967711   -0.119349510   -0.156487824
 401   Q   :    0.011512006   -0.267779614   -0.122488188
 402   Q   :    0.246062131    0.191524068   -0.048027764
 403   Q   :   -0.254842405    0.084330923    0.167362264
 404   Q   :    0.213359548   -0.018696272    0.132186231
 405   Q   :   -0.087640546   -0.187836526   -0.166339426
 406   Q   :   -0.132842027    0.204165982    0.033342159
 407   Q   :   -0.040857242   -0.217405156   -0.127639577
 408   Q   :    0.040609620    0.236206194   -0.060339675
 409   Q   :   -0.006231002   -0.023142008    0.204091945
 410   Q   :    0.051450373    0.237209166   -0.082356091
 411   Q   :    0.167862511   -0.200989027    0.107766721
 412   Q   :   -0.222588814   -0.042647912   -0.012069515
 413   Q   :    0.151718869    0.257048612   -0.005609279
 414   Q   :    0.164925150   -0.277991620    0.081716136
 415   Q   :   -0.317936590    0.011588527   -0.076823579
 416   Q   :   -0.256379076    0.003458288   -0.191525790
 417   Q   :    0.222408680   -0.179225600   -0.061854127
 418   Q   :    0.034158902    0.177286968    0.253691234
 419   Q   :    0.105653640    0.254027220    0.050518062
 420   Q   :    0.067723132   -0.124125991   -0.236044677
 421   Q   :   -0.157139378   -0.129100361    0.185104667
 422   Q   :    0.238054978   -0.007528970    0.141971417
 423   Q   :   -0.047496654    0.035164549   -0.217642103
 424   Q   :   -0.174845231   -0.029834883    0.080732645
 425   Q   :   -0.292985575   -0.052515316   -0.147601654
 426   Q   :    0.076803799    0.290995464    0.027446909
 427   Q   :    0.216040388   -0.237784030    0.122251062
 428   Q   :   -0.029661089    0.280602495   -0.002200516
 429   Q   :   -0.186392524   -0.198405640    0.072265787
 430   Q   :    0.208954419   -0.086991863   -0.076928465
 431   Q   :   -0.172638695    0.134635864    0.092130111
 432   Q   :    0.160351237    0.077139972   -0.226157836
 433   Q   :    0.015004011   -0.225196605    0.137002685
 434   Q   :   -0.125174418   -0.223812391   -0.117578232
 435   Q   :    0.015473147    0.263791313   -0.106188564
 436   Q   :    0.112833650   -0.042422917    0.210550642
 437   Q   :   -0.219000552   -0.164138130    0.067609490
 438   Q   :    0.004323081    0.243221182   -0.087114079
 439   Q   :    0.220887225   -0.083641992    0.016874013
 440   Q   :   -0.203063022    0.079464824    0.123202070
 441   Q   :    0.049118219   -0.250256893   -0.116886979
 442   Q   :    0.154657051    0.174912302   -0.012131314
 443   Q   :    0.126439732   -0.120425923    0.205203792
 444   Q   :    0.125441984    0.154167008   -0.220304950
 445   Q   :   -0.249835689   -0.028246182    0.012185138
 446   Q   :   -0.165875667    0.226858449   -0.055118523
 447   Q   :    0.299399629    0.060725576    0.053978945
 448   Q   :   -0.126927858   -0.284306875    0.011183022
 449   Q   :   -0.105528429    0.229906154    0.125908878
 450   Q   :    0.201390887   -0.171140240    0.111406368
 451   Q   :   -0.091317830   -0.064578605   -0.240184207
 452   Q   :   -0.174286238    0.212232206    0.003686404
 453   Q   :    0.219217977   -0.027828704   -0.236036179
 454   Q   :   -0.041855231   -0.190887596    0.227624508
 455   Q   :   -0.191055742   -0.077595192   -0.173692925
 456   Q   :   -0.031567035    0.069998050    0.283049162
 457   Q   :    0.225617583    0.015881642   -0.099116519
 458   Q   :    0.021877222   -0.039740243   -0.208632624
 459   Q   :    0.100700901    0.186992263    0.139222541
 460   Q   :   -0.123428465   -0.156651059    0.074778175
 461   Q   :    0.139619601   -0.061419149    0.210483149
 462   Q   :    0.038624202    0.163049766   -0.217934128
 463   Q   :   -0.192588756   -0.097280827    0.008698914
 464   Q   :   -0.081627485    0.227082406   -0.133849832
 465   Q   :   -0.184507693   -0.196568034    0.136096060
 466   Q   :    0.262731055   -0.037988402   -0.002636218
 467   Q   :    0.147409188    0.074126725    0.172898266
 468   Q   :   -0.102408577   -0.228417628   -0.050448939
 469   Q   :   -0.055575946    0.145066610   -0.131528223
 470   Q   :   -0.141377475    0.164074980   -0.198008128
 471   Q   :    0.192934187   -0.182248602   -0.039968416
 472   Q   :   -0.055002242    0.019604992    0.242675442
 473   Q   :    0.022972752    0.277009802    0.112029490
 474   Q   :    0.088845837   -0.020002292   -0.261882367
 475   Q   :   -0.115440396   -0.239104539    0.140208096
 476   Q   :   -0.024332435    0.095211545   -0.243399802
 477   Q   :    0.140865987    0.098787136    0.188886324
 478   Q   :   -0.120864081   -0.202436488    0.062388611
 479   Q   :    0.221829746   -0.189540615    0.106933426
 480   Q   :   -0.084745819    0.026473003   -0.239735469
 481   Q   :   -0.133264210    0.169786399    0.133266647
 482   Q   :   -0.130682362   -0.217401144    0.118687186
 483   Q   :    0.279012414   -0.009207728   -0.069299289
 484   Q   :   -0.145243018    0.212824329   -0.048271220
 485   Q   :   -0.073219577   -0.094046522    0.246097866
 486   Q   :    0.190757359    0.005884359   -0.122329726
 487   Q   :   -0.124477653    0.084893821   -0.113186923
 488   Q   :    0.184144744    0.182750764    0.033931994
 489   Q   :    0.060065143   -0.253163428   -0.018407563
 490   Q   :   -0.245732707    0.071114413   -0.020945965
 491   Q   :   -0.258644711    0.133779079    0.068782730
 492   Q   :    0.211346858    0.147709257   -0.014843009
 493   Q   :    0.041420314   -0.297124967   -0.067845397
 494   Q   :    0.175973540   -0.108540697    0.188801540
 495   Q   :   -0.137023738    0.244571174    0.019866707
 496   Q   :   -0.035707240   -0.132095897   -0.199299777
 497   Q   :    0.150108020   -0.087832685    0.189458194
 498   Q   :   -0.227439814   -0.143292436   -0.127802740
 499   Q   :    0.076798282    0.220257512   -0.068525504
 500   Q   :    0.109897197   -0.237336652   -0.056717791
 501   Q   :   -0.009782502    0.234050416   -0.174187849
 502   Q   :   -0.111063287    0.013688453    0.235020864
 503   Q   :   -0.164703845   -0.094273557   -0.217274919
 504   Q   :   -0.147664154    0.171157181    0.199894024
 505   Q   :    0.317960749   -0.074858858    0.022436019
 506   Q   :    0.081716512   -0.037972921    0.292702517
 507   Q   :    0.141890104   -0.095494989   -0.206323899
 508   Q   :   -0.224477277    0.129387967   -0.080838546
 509   Q   :   -0.231214421    0.056140664    0.093728628
 510   Q   :    0.103419896    0.130615354   -0.228832577
 511   Q   :    0.133485528   -0.186522572    0.132177993
 512   Q   :   -0.083031086    0.221084312    0.180695014
 513   Q   :    0.030394182    0.050428457   -0.227350572
 514   Q   :    0.050312461   -0.265248402    0.056183257
 515   Q   :    0.016090421   -0.277965087    0.058408334
 516   Q   :   -0.259454119    0.153891855    0.003298277
 517   Q   :    0.242658097    0.126433526   -0.060986914
 518   Q   :    0.150003987    0.220029681    0.111655619
 519   Q   :    0.119383925   -0.257297349   -0.059105843
 520   Q   :   -0.267767475    0.042720137   -0.058252422
 521   Q   :    0.205900606   -0.022206012   -0.159196834
 522   Q   :   -0.122823045   -0.193965010    0.178789686
 523   Q   :   -0.085626186    0.219997503   -0.017538816
 524   Q   :    0.134490655   -0.221216516   -0.161238971
 525   Q   :   -0.237699080    0.132829459   -0.039066302
 526   Q   :    0.100121366    0.081077746    0.198673738
 527   Q   :   -0.115031140   -0.020108473   -0.208216536
 528   Q   :   -0.038618777    0.114357547    0.226580126
 529   Q   :    0.159278964   -0.096682252   -0.015657616
 530   Q   :   -0.038154254    0.232387054   -0.188630984
 531   Q   :    0.007518178   -0.262614862   -0.106702219
 532   Q   :    0.032345588    0.027020245    0.307462492
 533   Q   :   -0.091814505    0.027470818    0.323411621
 534   Q   :    0.186806031    0.221335449   -0.124943368
 535   Q   :   -0.093654571   -0.246628063   -0.197841649
 536   Q   :   -0.122592092   -0.108503658   -0.249770932
 537   Q   :    0.028653112   -0.137541720    0.267207229
 538   Q   :    0.095265226    0.246091625   -0.012098068
 539   Q   :   -0.048256596   -0.059768354    0.284368751
 540   Q   :   -0.081833833   -0.146285352   -0.230079593
 541   Q   :    0.117753856    0.201314889   -0.052152603
 542   Q   :    0.223608467   -0.168145079   -0.076962883
 543   Q   :   -0.080093176    0.041603995    0.275863621
 544   Q   :   -0.153326731    0.131010277   -0.208179569
 545   Q   :   -0.051186593    0.205340945    0.013164739
 546   Q   :   -0.165497773   -0.215256180   -0.004925592
 547   Q   :    0.216553988   -0.003004030   -0.002570090
 548   Q   :   -0.197292584   -0.206167330    0.082190570
 549   Q   :    0.258329182   -0.074310392   -0.147439093
 550   Q   :   -0.055516555    0.280723757    0.048892469
 551   Q   :    0.091736605    0.149536336    0.254305467
 552   Q   :    0.166539680   -0.168138103   -0.134759708
 553   Q   :   -0.269310264    0.025088697   -0.121722109
 554   Q   :    0.212883702   -0.066967492    0.168344703
 555   Q   :    0.017254743    0.246714640   -0.174876786
 556   Q   :   -0.223173182   -0.173653351   -0.003947699
 557   Q   :   -0.159371890   -0.085247003    0.129623146
 558   Q   :   -0.020104506    0.172985805   -0.193411040
 559   Q   :    0.181998046   -0.090578464    0.066098581
 560   Q   :   -0.034202029    0.222858906    0.089432525
 561   Q   :   -0.158368959   -0.170938495   -0.100972071
 562   Q   :    0.189472171   -0.064456229    0.021723796
 563   Q   :   -0.188971944   -0.069331725    0.166741573
 564   Q   :   -0.008199435    0.188436198   -0.166350203
 565   Q   :    0.199400226   -0.131244072   -0.001064693
 566   Q   :    0.104534964   -0.281645267    0.052530241
 567   Q   :    0.166740195    0.170137321   -0.137546598
 568   Q   :   -0.268821120    0.117130491    0.087428346
 569   Q   :    0.202945816    0.209492947   -0.014381420
 570   Q   :    0.039091876   -0.246417485    0.045492805
 571   Q   :   -0.242677461    0.036180239   -0.040035811
 572   Q   :    0.144914751   -0.202294208    0.209210705
 573   Q   :   -0.048092084   -0.039336183   -0.264973657
 574   Q   :   -0.092660470    0.240456397    0.056917134
 575   Q   :    0.124117174    0.180468674    0.166004984
 576   Q   :    0.131877280   -0.257952976   -0.073696877
 577   Q   :   -0.254287113    0.088679420   -0.083639803
 578   Q   :    0.033268672   -0.273672191   -0.058446155
 579   Q   :   -0.159947452    0.153935020    0.201682291
 580   Q   :    0.124181524    0.112736587   -0.141334098
 581   Q   :    0.108498782   -0.277501361   -0.055054161
 582   Q   :   -0.293031815    0.057208256    0.019595246
 583   Q   :    0.191215853    0.215343173    0.034007675
 584   Q   :    0.107976171    0.213360223    0.171263758
 585   Q   :   -0.237746532   -0.171441397    0.041579177
 586   Q   :    0.126512174   -0.030924346   -0.214715169
 587   Q   :    0.233916572   -0.114670201    0.035312461
 588   Q   :   -0.141745116    0.188560734    0.178409069
 589   Q   :   -0.090368543   -0.066998968   -0.214984370
 590   Q   :    0.223241515    0.089528872    0.138349500
 591   Q   :   -0.162732410   -0.187808603    0.043005776
 592   Q   :   -0.061770507    0.105192501   -0.171739741
 593   Q   :    0.221926947   -0.058318658   -0.095322695
 594   Q   :   -0.100636602    0.207530684    0.134001122
 595   Q   :   -0.124602792   -0.138557661   -0.054251778
 596   Q   :    0.238037123    0.093581869   -0.138259575
 597   Q   :   -0.251960140   -0.036145304   -0.113708868
 598   Q   :    0.024329283   -0.060215390    0.260829004
 599   Q   :   -0.159779876   -0.216671466    0.157988476
 600   Q   :   -0.041101030   -0.032034424   -0.293874157
 601   Q   :    0.196637021    0.254255790    0.129750792
 602   Q   :   -0.159039987    0.199104349   -0.153802228
 603   Q   :    0.265261888   -0.049486043   -0.039785005
 604   Q   :   -0.101851714   -0.139969166    0.189883498
 605   Q   :    0.027589198   -0.234843664   -0.055077238
 606   Q   :   -0.140766355    0.199516051   -0.152176209
 607   Q   :    0.116455626    0.044276004    0.207926571
 608   Q   :    0.166547575    0.128699340    0.111595724
 609   Q   :   -0.179511823    0.067863581   -0.255429820
 610   Q   :    0.005462095   -0.190745815    0.137280223
 611   Q   :    0.119951853    0.226014229   -0.110592853
 612   Q   :    0.123417251   -0.262166526    0.103661489
 613   Q   :   -0.240452146    0.022545547    0.010048341
 614   Q   :   -0.267621010   -0.111050325    0.059430708
 615   Q   :    0.150539246    0.173174634    0.135696749
 616   Q   :    0.106811502   -0.049193871   -0.206562369
 617   Q   :    0.244788459   -0.111885276    0.070737615
 618   Q   :   -0.157963257    0.158299462    0.135766650
 619   Q   :   -0.091370457   -0.063805110   -0.198233107
 620   Q   :   -0.129414222   -0.176865825    0.180375580
 621   Q   :    0.029924198    0.312676775    0.032586078
 622   Q   :    0.097614723   -0.125519060   -0.221939248
 623   Q   :    0.209100982    0.131559245    0.160909528
 624   Q   :   -0.124415293    0.159685825   -0.222448114
 625   Q   :   -0.091154498   -0.292970295    0.076319922
 626   Q   :    0.096153201    0.186766005   -0.205147024
 627   Q   :   -0.204309169    0.057778165    0.187478670
 628   Q   :    0.116415739   -0.247110529    0.021329168
 629   Q   :   -0.116785276    0.137639043    0.155030577
 630   Q   :    0.187676489   -0.208227889    0.027140542
 631   Q   :   -0.050561902    0.077484408   -0.183907127

Difference to translation invariance:
           :   -0.0000225141    0.0000900759   -0.0000046797

Difference to rotation invariance:
           :    0.0006783261   -0.0060220647    0.0031955096

Norm of the cartesian gradient     ...    6.3232608041
RMS gradient                       ...    0.1453335185
MAX gradient                       ...    0.3234116215

-------
TIMINGS
-------

Total SCF gradient time            ...      216.039 sec

One electron gradient       ....      27.557 sec  ( 12.8%)
RI-J Coulomb gradient       ....      11.492 sec  (  5.3%)
COSX gradient               ....     134.854 sec  ( 62.4%)
XC gradient                 ....      17.402 sec  (  8.1%)

Maximum memory used throughout the entire SCFGRAD-calculation: 841.4 MB

                            ***************************************
                            *     ORCA property calculations      *
                            ***************************************

                                    ---------------------
                                    Active property flags
                                    ---------------------
   (+) Dipole Moment


------------------------------------------------------------------------------
                       ORCA ELECTRIC PROPERTIES CALCULATION
------------------------------------------------------------------------------

Dipole Moment Calculation                       ... on
Quadrupole Moment Calculation                   ... off
Polarizability Calculation                      ... off
GBWName                                         ... final095.orca.gbw
Electron density                                ... final095.orca.scfp
The origin for moment calculation is the CENTER OF MASS  = (21.937092, 20.614500 20.448673)

-------------
DIPOLE MOMENT
-------------
                                X             Y             Z
Electronic contribution:     -1.24720      -1.05453       0.53582
Nuclear contribution   :     -2.69122      -8.14585      -2.50096
                        -----------------------------------------
Total Dipole Moment    :     -3.93842      -9.20038      -1.96514
                        -----------------------------------------
Magnitude (a.u.)       :     10.19901
Magnitude (Debye)      :     25.92383



--------------------
Rotational spectrum 
--------------------
 
Rotational constants in cm-1:     0.001680     0.001432     0.001294 
Rotational constants in MHz :    50.377765    42.929209    38.781911 

 Dipole components along the rotational axes: 
x,y,z [a.u.] :    -8.807557    -2.949713     4.212599 
x,y,z [Debye]:   -22.387030    -7.497575    10.707576 

 

Timings for individual modules:

Sum of individual times         ...      958.425 sec (=  15.974 min)
GTO integral calculation        ...       14.317 sec (=   0.239 min)   1.5 %
SCF iterations                  ...      723.595 sec (=  12.060 min)  75.5 %
SCF Gradient evaluation         ...      220.513 sec (=   3.675 min)  23.0 %
                             ****ORCA TERMINATED NORMALLY****
TOTAL RUN TIME: 0 days 0 hours 16 minutes 6 seconds 518 msec
