
                                 *****************
                                 * O   R   C   A *
                                 *****************

                                            #,                                       
                                            ###                                      
                                            ####                                     
                                            #####                                    
                                            ######                                   
                                           ########,                                 
                                     ,,################,,,,,                         
                               ,,#################################,,                 
                          ,,##########################################,,             
                       ,#########################################, ''#####,          
                    ,#############################################,,   '####,        
                  ,##################################################,,,,####,       
                ,###########''''           ''''###############################       
              ,#####''   ,,,,##########,,,,          '''####'''          '####       
            ,##' ,,,,###########################,,,                        '##       
           ' ,,###''''                  '''############,,,                           
         ,,##''                                '''############,,,,        ,,,,,,###''
      ,#''                                            '''#######################'''  
     '                                                          ''''####''''         
             ,#######,   #######,   ,#######,      ##                                
            ,#'     '#,  ##    ##  ,#'     '#,    #''#        ######   ,####,        
            ##       ##  ##   ,#'  ##            #'  '#       #        #'  '#        
            ##       ##  #######   ##           ,######,      #####,   #    #        
            '#,     ,#'  ##    ##  '#,     ,#' ,#      #,         ##   #,  ,#        
             '#######'   ##     ##  '#######'  #'      '#     #####' # '####'        



                  #######################################################
                  #                        -***-                        #
                  #          Department of theory and spectroscopy      #
                  #    Directorship and core code : Frank Neese         #
                  #        Max Planck Institute fuer Kohlenforschung    #
                  #                Kaiser Wilhelm Platz 1               #
                  #                 D-45470 Muelheim/Ruhr               #
                  #                      Germany                        #
                  #                                                     #
                  #                  All rights reserved                #
                  #                        -***-                        #
                  #######################################################


                         Program Version 5.0.3 -  RELEASE  -


 With contributions from (in alphabetic order):
   Daniel Aravena         : Magnetic Suceptibility
   Michael Atanasov       : Ab Initio Ligand Field Theory (pilot matlab implementation)
   Alexander A. Auer      : GIAO ZORA, VPT2 properties, NMR spectrum
   Ute Becker             : Parallelization
   Giovanni Bistoni       : ED, misc. LED, open-shell LED, HFLD
   Martin Brehm           : Molecular dynamics
   Dmytro Bykov           : SCF Hessian
   Vijay G. Chilkuri      : MRCI spin determinant printing, contributions to CSF-ICE
   Dipayan Datta          : RHF DLPNO-CCSD density
   Achintya Kumar Dutta   : EOM-CC, STEOM-CC
   Dmitry Ganyushin       : Spin-Orbit,Spin-Spin,Magnetic field MRCI
   Miquel Garcia          : C-PCM and meta-GGA Hessian, CC/C-PCM, Gaussian charge scheme
   Yang Guo               : DLPNO-NEVPT2, F12-NEVPT2, CIM, IAO-localization
   Andreas Hansen         : Spin unrestricted coupled pair/coupled cluster methods
   Benjamin Helmich-Paris : MC-RPA, TRAH-SCF, COSX integrals
   Lee Huntington         : MR-EOM, pCC
   Robert Izsak           : Overlap fitted RIJCOSX, COSX-SCS-MP3, EOM
   Marcus Kettner         : VPT2
   Christian Kollmar      : KDIIS, OOCD, Brueckner-CCSD(T), CCSD density, CASPT2, CASPT2-K
   Simone Kossmann        : Meta GGA functionals, TD-DFT gradient, OOMP2, MP2 Hessian
   Martin Krupicka        : Initial AUTO-CI
   Lucas Lang             : DCDCAS
   Marvin Lechner         : AUTO-CI (C++ implementation), FIC-MRCC
   Dagmar Lenk            : GEPOL surface, SMD
   Dimitrios Liakos       : Extrapolation schemes; Compound Job, initial MDCI parallelization
   Dimitrios Manganas     : Further ROCIS development; embedding schemes
   Dimitrios Pantazis     : SARC Basis sets
   Anastasios Papadopoulos: AUTO-CI, single reference methods and gradients
   Taras Petrenko         : DFT Hessian,TD-DFT gradient, ASA, ECA, R-Raman, ABS, FL, XAS/XES, NRVS
   Peter Pinski           : DLPNO-MP2, DLPNO-MP2 Gradient
   Christoph Reimann      : Effective Core Potentials
   Marius Retegan         : Local ZFS, SOC
   Christoph Riplinger    : Optimizer, TS searches, QM/MM, DLPNO-CCSD(T), (RO)-DLPNO pert. Triples
   Tobias Risthaus        : Range-separated hybrids, TD-DFT gradient, RPA, STAB
   Michael Roemelt        : Original ROCIS implementation
   Masaaki Saitow         : Open-shell DLPNO-CCSD energy and density
   Barbara Sandhoefer     : DKH picture change effects
   Avijit Sen             : IP-ROCIS
   Kantharuban Sivalingam : CASSCF convergence, NEVPT2, FIC-MRCI
   Bernardo de Souza      : ESD, SOC TD-DFT
   Georgi Stoychev        : AutoAux, RI-MP2 NMR, DLPNO-MP2 response
   Willem Van den Heuvel  : Paramagnetic NMR
   Boris Wezisla          : Elementary symmetry handling
   Frank Wennmohs         : Technical directorship


 We gratefully acknowledge several colleagues who have allowed us to
 interface, adapt or use parts of their codes:
   Stefan Grimme, W. Hujo, H. Kruse, P. Pracht,  : VdW corrections, initial TS optimization,
                  C. Bannwarth, S. Ehlert          DFT functionals, gCP, sTDA/sTD-DF
   Ed Valeev, F. Pavosevic, A. Kumar             : LibInt (2-el integral package), F12 methods
   Garnet Chan, S. Sharma, J. Yang, R. Olivares  : DMRG
   Ulf Ekstrom                                   : XCFun DFT Library
   Mihaly Kallay                                 : mrcc  (arbitrary order and MRCC methods)
   Jiri Pittner, Ondrej Demel                    : Mk-CCSD
   Frank Weinhold                                : gennbo (NPA and NBO analysis)
   Christopher J. Cramer and Donald G. Truhlar   : smd solvation model
   Lars Goerigk                                  : TD-DFT with DH, B97 family of functionals
   V. Asgeirsson, H. Jonsson                     : NEB implementation
   FAccTs GmbH                                   : IRC, NEB, NEB-TS, DLPNO-Multilevel, CI-OPT
                                                   MM, QMMM, 2- and 3-layer-ONIOM, Crystal-QMMM,
                                                   LR-CPCM, SF, NACMEs, symmetry and pop. for TD-DFT,
                                                   nearIR, NL-DFT gradient (VV10), updates on ESD,
                                                   ML-optimized integration grids
   S Lehtola, MJT Oliveira, MAL Marques          : LibXC Library
   Liviu Ungur et al                             : ANISO software


 Your calculation uses the libint2 library for the computation of 2-el integrals
 For citations please refer to: http://libint.valeyev.net

 Your ORCA version has been built with support for libXC version: 5.1.0
 For citations please refer to: https://tddft.org/programs/libxc/

 This ORCA versions uses:
   CBLAS   interface :  Fast vector & matrix operations
   LAPACKE interface :  Fast linear algebra routines
   SCALAPACK package :  Parallel linear algebra routines
   Shared memory     :  Shared parallel matrices
   BLAS/LAPACK       :  OpenBLAS 0.3.15  USE64BITINT DYNAMIC_ARCH NO_AFFINITY SkylakeX SINGLE_THREADED
        Core in use  :  SkylakeX
   Copyright (c) 2011-2014, The OpenBLAS Project


================================================================================

----- Orbital basis set information -----
Your calculation utilizes the basis: def2-SVP
   F. Weigend and R. Ahlrichs, Phys. Chem. Chem. Phys. 7, 3297 (2005).

The basis set includes element-specific modifications.

Your calculation utilizes the basis: aug-cc-pVTZ 
    H, B-Ne : Obtained from the ccRepo (grant-hill.group.shef.ac.uk/ccrepo) Feb. 2017
              R. A. Kendall, T. H. Dunning, Jr., R. J. Harrison, J. Chem. Phys. 96, 6796 (1992)
         He : Obtained from the ccRepo (grant-hill.group.shef.ac.uk/ccrepo) Feb. 2017
              D. E. Woon, T. H. Dunning, Jr., J. Chem. Phys. 100, 2975 (1994)
  Li-Be, Na : Obtained from the ccRepo (grant-hill.group.shef.ac.uk/ccrepo) Feb. 2017
              B. P. Prascher, D. E. Woon, K. A. Peterson, T. H. Dunning, Jr., A. K. Wilson, Theor. Chem. Acc. 128, 69 (2011)
         Mg : Obtained from the Peterson Research Group Website (tyr0.chem.wsu.edu/~kipeters) Feb. 2017
              B. P. Prascher, D. E. Woon, K. A. Peterson, T. H. Dunning, Jr., A. K. Wilson, Theor. Chem. Acc. 128, 69 (2011)
      Al-Ar : Obtained from the ccRepo (grant-hill.group.shef.ac.uk/ccrepo) Feb. 2017
              D. E. Woon, T. H. Dunning, Jr., J. Chem. Phys. 98, 1358 (1993)
      Sc-Zn : Obtained from the ccRepo (grant-hill.group.shef.ac.uk/ccrepo) Feb. 2017
              N. B. Balabanov, K. A. Peterson, J. Chem. Phys. 123, 064107 (2005)
              N. B. Balabanov, K. A. Peterson, J. Chem. Phys. 125, 074110 (2006)
      Ga-Kr : Obtained from the ccRepo (grant-hill.group.shef.ac.uk/ccrepo) Feb. 2017
              A. K. Wilson, D. E. Woon, K. A. Peterson, T. H. Dunning, Jr., J. Chem. Phys. 110, 7667 (1999)
     Ag, Au : Obtained from the Peterson Research Group Website (tyr0.chem.wsu.edu/~kipeters) Feb. 2017
              K. A. Peterson, C. Puzzarini, Theor. Chem. Acc. 114, 283 (2005)

Your calculation utilizes the basis: cc-pVTZ 
       H, B-Ne : Obtained from the ccRepo (grant-hill.group.shef.ac.uk/ccrepo) Feb. 2017
                 T. H. Dunning, Jr., J. Chem. Phys. 90, 1007 (1989)
            He : Obtained from the ccRepo (grant-hill.group.shef.ac.uk/ccrepo) Feb. 2017
                 D. E. Woon, T. H. Dunning, Jr., J. Chem. Phys. 100, 2975 (1994)
  Li-Be, Na-Mg : Obtained from the ccRepo (grant-hill.group.shef.ac.uk/ccrepo) Feb. 2017
                 B. P. Prascher, D. E. Woon, K. A. Peterson, T. H. Dunning, Jr., A. K. Wilson, Theor. Chem. Acc. 128, 69 (2011)
         Al-Ar : Obtained from the ccRepo (grant-hill.group.shef.ac.uk/ccrepo) Feb. 2017
                 D. E. Woon, T. H. Dunning, Jr., J. Chem. Phys. 98, 1358 (1993)
            Ca : Obtained from the Peterson Research Group Website (tyr0.chem.wsu.edu/~kipeters) Feb. 2017
                 J. Koput, K. A. Peterson, J. Phys. Chem. 106, 9595 (2002)
         Sc-Zn : Obtained from the ccRepo (grant-hill.group.shef.ac.uk/ccrepo) Feb. 2017
                 N. B. Balabanov, K. A. Peterson, J. Chem. Phys. 123, 064107 (2005)
                 N. B. Balabanov, K. A. Peterson, J. Chem. Phys. 125, 074110 (2006)
         Ga-Kr : Obtained from the ccRepo (grant-hill.group.shef.ac.uk/ccrepo) Feb. 2017
                 A. K. Wilson, D. E. Woon, K. A. Peterson, T. H. Dunning, Jr., J. Chem. Phys. 110, 7667 (1999)
             Y : Obtained from the ccRepo (grant-hill.group.shef.ac.uk/ccrepo) Feb. 2017
                 K. A. Peterson, D. Figgen, M. Dolg, H. Stoll, J. Chem. Phys. 126, 124101 (2007)
        Ag, Au : Obtained from the Peterson Research Group Website (tyr0.chem.wsu.edu/~kipeters) Feb. 2017
                 K. A. Peterson, C. Puzzarini, Theor. Chem. Acc. 114, 283 (2005)

----- AuxJ basis set information -----
Your calculation utilizes the auxiliary basis: def2/J
   F. Weigend, Phys. Chem. Chem. Phys. 8, 1057 (2006).

================================================================================
                                        WARNINGS
                       Please study these warnings very carefully!
================================================================================

WARNING: The globally-selected AuxJ basis set is optimized for use with ECPs
         Make sure a suitable alternative is explicitly given all heavy elements (Z>36)

INFO   : the flag for use of the SHARK integral package has been found!

================================================================================
                                       INPUT FILE
================================================================================
NAME = final008.orca.inp
|  1> ! NoMOPrint PrintBasis #MINIPRINT SMALLPRINT LARGEPRINT
|  2> ! ALLPOP XYZFILE
|  3> #! BP86 3-21G   TightSCF
|  4> ! ENGRAD
|  5> ! B3LYP NormalPNO PModel #DecontractAux
|  6> #! VerySlowConv 
|  7>  %maxcore 5000
|  8>  %scf  maxiter   500  end 
|  9> 
| 10> %pal
| 11>     nprocs 32
| 12> end
| 13> 
| 14> %basis
| 15>     NewGTO O    # New basis for oxygen
| 16>         "aug-cc-pVTZ"
| 17>     end
| 18>     NewGTO C    # New basis for carbon
| 19>         "aug-cc-pVTZ"
| 20>     end
| 21>     NewGTO H    # New basis for hydrogen
| 22>         "cc-pVTZ"
| 23>     end
| 24> end
| 25> 
| 26> * xyz 0   1
| 27>   C  12.05  12.3  11.51  #1
| 28>   H  11.48  12.35  12.37  #2
| 29>   H  11.75  13.11  10.88  #3
| 30>   C  11.93  10.93  10.91  #4
| 31>   H  12.36  10.92  9.92  #5
| 32>   H  12.51  10.21  11.44  #6
| 33>   C  10.45  10.43  11.06  #7
| 34>   H  9.8  11.31  10.85  #8
| 35>   H  10.46  10.01  12.06  #9
| 36>   C  10.11  9.42  10.11  #10
| 37>   H  10.79  8.58  10.08  #11
| 38>   H  10.1  9.96  9.14  #12
| 39>   O  8.84  8.85  10.45  #13
| 40>   H  8.15  9.52  10.71  #14
| 41>   O  13.37  12.52  11.89  #15
| 42>   H  13.54  11.91  12.55  #16
| 43>   O  8.78  11.3  14.58  #17
| 44>   H  8.9  11.87  13.8  #18
| 45>   H  8.67  10.44  14.08  #19
| 46>   O  7.3  7.01  12.13  #20
| 47>   H  6.34  6.88  12.35  #21
| 48>   H  7.43  6.62  11.26  #22
| 49>   O  10.33  8.32  7.13  #23
| 50>   H  9.73  7.59  7.38  #24
| 51>   H  11.13  7.9  7.48  #25
| 52>   O  9.49  14.78  10.35  #26
| 53>   H  8.99  15.36  9.77  #27
| 54>   H  9.93  14.28  9.66  #28
| 55>   O  10.8  15.58  12.77  #29
| 56>   H  10.42  15.1  11.99  #30
| 57>   H  11.31  16.17  12.19  #31
| 58>   O  5.81  10.61  15.91  #32
| 59>   H  6.67  10.69  15.48  #33
| 60>   H  5.66  9.73  16.18  #34
| 61>   O  8.94  16.65  7.86  #35
| 62>   H  8.63  16.8  6.96  #36
| 63>   H  9.81  17.09  7.87  #37
| 64>   O  7.78  13.75  7.05  #38
| 65>   H  8.03  13.6  6.13  #39
| 66>   H  8.63  13.84  7.48  #40
| 67>   O  14.99  11.21  9.31  #41
| 68>   H  14.59  10.99  10.16  #42
| 69>   H  14.89  12.17  9.12  #43
| 70>   O  13.15  10.91  6.29  #44
| 71>   H  12.22  10.8  6.22  #45
| 72>   H  13.42  10.69  7.18  #46
| 73>   O  4.46  6.85  11.87  #47
| 74>   H  3.54  6.7  11.49  #48
| 75>   H  4.17  6.88  12.79  #49
| 76>   O  8.34  4.77  13.74  #50
| 77>   H  8.4  3.9  13.35  #51
| 78>   H  8.12  5.24  12.92  #52
| 79>   O  6.97  11.04  10.82  #53
| 80>   H  7.18  11.09  9.9  #54
| 81>   H  6.2  10.4  10.89  #55
| 82>   O  11  7.06  12.53  #56
| 83>   H  10.65  7.87  12.94  #57
| 84>   H  10.19  6.76  12.11  #58
| 85>   O  8.33  16.85  14.65  #59
| 86>   H  9.06  16.87  14.09  #60
| 87>   H  8.74  16.75  15.55  #61
| 88>   O  14.49  14.94  12.01  #62
| 89>   H  14.1  14.08  12.13  #63
| 90>   H  15.41  14.67  11.96  #64
| 91>   O  10.35  13.41  8.14  #65
| 92>   H  11.12  14.02  8.18  #66
| 93>   H  10.5  12.61  7.57  #67
| 94>   O  14.99  12.86  14.44  #68
| 95>   H  14.93  11.89  14.26  #69
| 96>   H  14.16  13.05  14.92  #70
| 97>   O  12.72  17.03  11.14  #71
| 98>   H  13.51  16.44  11.2  #72
| 99>   H  12.97  17.91  11.39  #73
|100>   O  11.14  10.63  15.85  #74
|101>   H  11.82  11.25  16.12  #75
|102>   H  10.46  11.23  15.54  #76
|103>   O  8.11  6.7  8.52  #77
|104>   H  7.2  7.01  8.25  #78
|105>   H  8.36  7.4  9.16  #79
|106>   O  8.28  4.65  10.55  #80
|107>   H  7.35  4.46  10.72  #81
|108>   H  8.36  4.88  9.65  #82
|109>   O  15.18  14.38  9.16  #83
|110>   H  15.29  15.33  9.05  #84
|111>   H  15.03  14.29  10.16  #85
|112>   O  13.22  7.05  7.65  #86
|113>   H  13.42  7.15  6.72  #87
|114>   H  12.89  6.16  7.68  #88
|115>   O  10.28  14.32  15.16  #89
|116>   H  9.46  14.35  15.71  #90
|117>   H  10.3  14.77  14.3  #91
|118>   O  8.68  5.8  5.53  #92
|119>   H  8.15  5.41  6.28  #93
|120>   H  8.23  6.66  5.5  #94
|121>   O  12.09  9.45  13.66  #95
|122>   H  12.3  8.6  14.09  #96
|123>   H  11.67  9.93  14.42  #97
|124>   O  8.67  8.71  13.73  #98
|125>   H  8.31  8.3  14.48  #99
|126>   H  8.34  8.13  13.02  #100
|127>   O  10.41  10.77  5.99  #101
|128>   H  9.94  9.92  6.17  #102
|129>   H  9.86  11.35  5.44  #103
|130>   O  8.31  12.81  12.3  #104
|131>   H  8.47  13.47  11.66  #105
|132>   H  7.73  12.18  11.89  #106
|133>   O  14.68  10.38  13.76  #107
|134>   H  15.31  9.9  13.24  #108
|135>   H  13.8  9.96  13.6  #109
|136>   Q  0.6645  6.5$  21.31$  9.52$
|137>   Q  0.6645  6.12$  19.81$  9.68$
|138>   Q  -1.3290  5.95$  20.63$  9.55$
|139>   Q  0.6645  10$  20.15$  15.23$
|140>   Q  0.6645  8.67$  20.17$  15.83$
|141>   Q  -1.3290  9.43$  19.93$  15.79$
|142>   Q  0.6645  11.97$  13.31$  15.74$
|143>   Q  0.6645  13.02$  13.41$  16.83$
|144>   Q  -1.3290  12.64$  13.04$  16.19$
|145>   Q  0.6645  21.32$  12.35$  8.91$
|146>   Q  0.6645  22.29$  12.16$  7.76$
|147>   Q  -1.3290  21.71$  11.94$  8.31$
|148>   Q  0.6645  4.92$  15.52$  5.88$
|149>   Q  0.6645  6$  16.16$  4.95$
|150>   Q  -1.3290  5.26$  15.78$  5.13$
|151>   Q  0.6645  6.53$  4.48$  14.44$
|152>   Q  0.6645  5.66$  3.98$  15.5$
|153>   Q  -1.3290  5.79$  4.36$  14.8$
|154>   Q  0.6645  9.74$  13.5$  21.16$
|155>   Q  0.6645  11.19$  12.95$  21.6$
|156>   Q  -1.3290  10.46$  12.98$  21.14$
|157>   Q  0.6645  13.97$  7.94$  4.33$
|158>   Q  0.6645  13.98$  6.35$  4.73$
|159>   Q  -1.3290  14.12$  7.22$  4.8$
|160>   Q  0.6645  8.19$  0.19$  8.48$
|161>   Q  0.6645  7.67$  1.55$  9.24$
|162>   Q  -1.3290  8.05$  0.78$  9.13$
|163>   Q  0.6645  9.3$  13.36$  4.04$
|164>   Q  0.6645  8.02$  12.51$  3.8$
|165>   Q  -1.3290  8.64$  12.86$  4.27$
|166>   Q  0.6645  13.64$  16.6$  15.05$
|167>   Q  0.6645  14.56$  15.8$  14.23$
|168>   Q  -1.3290  14.33$  16.13$  14.93$
|169>   Q  0.6645  5.44$  16.64$  12.23$
|170>   Q  0.6645  4.52$  17.62$  11.47$
|171>   Q  -1.3290  5.24$  17.37$  11.86$
|172>   Q  0.6645  4.49$  12.69$  4.39$
|173>   Q  0.6645  5.62$  13.58$  4.75$
|174>   Q  -1.3290  5.11$  12.94$  4.85$
|175>   Q  0.6645  6.13$  18.3$  15.67$
|176>   Q  0.6645  5.42$  17.08$  16.17$
|177>   Q  -1.3290  5.73$  17.82$  16.25$
|178>   Q  0.6645  6.89$  10.7$  7.27$
|179>   Q  0.6645  7.61$  11.95$  7.52$
|180>   Q  -1.3290  7.24$  11.29$  7.76$
|181>   Q  0.6645  8.58$  10.71$  0.81$
|182>   Q  0.6645  9.6$  11.39$  -0.12$
|183>   Q  -1.3290  9.17$  10.74$  0.22$
|184>   Q  0.6645  20.06$  15.4$  10.48$
|185>   Q  0.6645  19.55$  16.29$  9.47$
|186>   Q  -1.3290  19.76$  16.11$  10.22$
|187>   Q  0.6645  14.06$  12.47$  5.51$
|188>   Q  0.6645  13.96$  13.98$  5.08$
|189>   Q  -1.3290  14.24$  13.17$  5.06$
|190>   Q  0.6645  19.46$  14.53$  6.91$
|191>   Q  0.6645  17.97$  14.77$  6.83$
|192>   Q  -1.3290  18.74$  14.88$  7.14$
|193>   Q  0.6645  13.46$  16.36$  6.01$
|194>   Q  0.6645  12.59$  15.2$  6.69$
|195>   Q  -1.3290  12.84$  15.72$  6.07$
|196>   Q  0.6645  14.67$  19.2$  8.16$
|197>   Q  0.6645  13.06$  19.03$  8.18$
|198>   Q  -1.3290  13.85$  19.31$  8.43$
|199>   Q  0.6645  10.56$  3.37$  6.57$
|200>   Q  0.6645  10.15$  2.57$  7.76$
|201>   Q  -1.3290  10.07$  3.22$  7.23$
|202>   Q  0.6645  16.47$  18.54$  12.53$
|203>   Q  0.6645  17.27$  17.21$  12.46$
|204>   Q  -1.3290  16.95$  17.96$  12.17$
|205>   Q  0.6645  17.32$  8.15$  13.1$
|206>   Q  0.6645  16.98$  6.96$  13.93$
|207>   Q  -1.3290  17.33$  7.73$  13.81$
|208>   Q  0.6645  11.93$  21.7$  14.88$
|209>   Q  0.6645  12.36$  20.31$  14.23$
|210>   Q  -1.3290  11.91$  21.04$  14.35$
|211>   Q  0.6645  7.03$  14.18$  13.2$
|212>   Q  0.6645  7.12$  15.4$  14.09$
|213>   Q  -1.3290  6.75$  14.86$  13.56$
|214>   Q  0.6645  11.99$  2.79$  15.7$
|215>   Q  0.6645  11.3$  4.21$  15.64$
|216>   Q  -1.3290  11.94$  3.63$  15.49$
|217>   Q  0.6645  11.59$  7.65$  0.7$
|218>   Q  0.6645  12.99$  8.09$  0.49$
|219>   Q  -1.3290  12.17$  8.14$  0.4$
|220>   Q  0.6645  2.35$  1.81$  10.09$
|221>   Q  0.6645  2.62$  2.66$  8.82$
|222>   Q  -1.3290  2.41$  1.95$  9.26$
|223>   Q  0.6645  15.75$  5.47$  14.75$
|224>   Q  0.6645  15.3$  6.08$  13.43$
|225>   Q  -1.3290  15.79$  5.65$  13.94$
|226>   Q  0.6645  7.87$  7.81$  16.85$
|227>   Q  0.6645  6.71$  7.01$  16.2$
|228>   Q  -1.3290  7.24$  7.67$  16.3$
|229>   Q  0.6645  16.14$  12.76$  17.23$
|230>   Q  0.6645  16.21$  12.23$  18.57$
|231>   Q  -1.3290  16.34$  12.18$  17.78$
|232>   Q  0.6645  21.66$  6.82$  11.93$
|233>   Q  0.6645  22$  6.88$  10.48$
|234>   Q  -1.3290  21.47$  6.73$  11.11$
|235>   Q  0.6645  3.11$  16.21$  13.51$
|236>   Q  0.6645  4.33$  15.36$  14.09$
|237>   Q  -1.3290  3.63$  15.53$  13.58$
|238>   Q  0.6645  15.69$  6.39$  9.47$
|239>   Q  0.6645  14.49$  7.16$  9.06$
|240>   Q  -1.3290  15.1$  6.99$  9.56$
|241>   Q  0.6645  6.4$  16.07$  8.6$
|242>   Q  0.6645  6.55$  14.63$  7.98$
|243>   Q  -1.3290  6.13$  15.31$  8.36$
|244>   Q  0.6645  2.67$  12.29$  15.67$
|245>   Q  0.6645  1.48$  12.88$  16.54$
|246>   Q  -1.3290  2.29$  12.81$  16.24$
|247>   Q  0.6645  0.1$  10.69$  11.47$
|248>   Q  0.6645  1.26$  11.71$  11.17$
|249>   Q  -1.3290  0.49$  11.46$  11.42$
|250>   Q  0.6645  6.78$  10.48$  2.31$
|251>   Q  0.6645  6.49$  11.85$  1.88$
|252>   Q  -1.3290  6.95$  11.29$  2.27$
|253>   Q  0.6645  16.45$  12.17$  3.28$
|254>   Q  0.6645  15.42$  13.21$  3.17$
|255>   Q  -1.3290  15.97$  12.7$  2.85$
|256>   Q  0.6645  10.17$  8.32$  18.04$
|257>   Q  0.6645  9.88$  9.13$  16.78$
|258>   Q  -1.3290  9.91$  8.43$  17.25$
|259>   Q  0.6645  2.66$  16.58$  10.36$
|260>   Q  0.6645  4.05$  15.9$  10.37$
|261>   Q  -1.3290  3.49$  16.48$  10.14$
|262>   Q  0.6645  12.27$  2.06$  5.21$
|263>   Q  0.6645  12.54$  3.6$  5.28$
|264>   Q  -1.3290  12.08$  2.88$  5.24$
|265>   Q  0.6645  3.51$  4.05$  13.78$
|266>   Q  0.6645  2.3$  3.95$  12.75$
|267>   Q  -1.3290  2.74$  4.24$  13.43$
|268>   Q  0.6645  13.66$  7.47$  17.88$
|269>   Q  0.6645  13.69$  6.03$  17.31$
|270>   Q  -1.3290  13.63$  6.63$  17.92$
|271>   Q  0.6645  9.62$  5.56$  15.27$
|272>   Q  0.6645  9.97$  6.32$  16.5$
|273>   Q  -1.3290  10.03$  5.71$  15.96$
|274>   Q  0.6645  3.89$  7.3$  18.15$
|275>   Q  0.6645  2.98$  8.34$  17.5$
|276>   Q  -1.3290  3.35$  7.59$  17.56$
|277>   Q  0.6645  21.59$  7.66$  16.17$
|278>   Q  0.6645  20.84$  8.81$  15.5$
|279>   Q  -1.3290  21.53$  8.38$  15.71$
|280>   Q  0.6645  12.94$  12.26$  1.49$
|281>   Q  0.6645  12.97$  13.81$  1.4$
|282>   Q  -1.3290  12.62$  13.05$  1.48$
|283>   Q  0.6645  7.09$  4.76$  18.06$
|284>   Q  0.6645  6.5$  5.84$  18.85$
|285>   Q  -1.3290  7.14$  5.41$  18.55$
|286>   Q  0.6645  17.93$  18.23$  6.37$
|287>   Q  0.6645  18.64$  17$  6.74$
|288>   Q  -1.3290  18.6$  17.75$  6.5$
|289>   Q  0.6645  10.09$  3.28$  3.94$
|290>   Q  0.6645  9.12$  4.5$  4.27$
|291>   Q  -1.3290  9.33$  3.75$  3.91$
|292>   Q  0.6645  14.45$  18.82$  13.95$
|293>   Q  0.6645  15.46$  20$  14.3$
|294>   Q  -1.3290  15.1$  19.37$  13.83$
|295>   Q  0.6645  12.24$  1.19$  8.43$
|296>   Q  0.6645  13.34$  0.14$  8.49$
|297>   Q  -1.3290  12.93$  0.79$  8.14$
|298>   Q  0.6645  0.49$  4.95$  8.52$
|299>   Q  0.6645  1.58$  4.25$  7.89$
|300>   Q  -1.3290  1.2$  4.59$  8.53$
|301>   Q  0.6645  11.71$  8.16$  3.67$
|302>   Q  0.6645  10.59$  7.5$  4.47$
|303>   Q  -1.3290  11.05$  7.68$  3.78$
|304>   Q  0.6645  3.96$  9.1$  9.05$
|305>   Q  0.6645  2.89$  9.21$  7.84$
|306>   Q  -1.3290  3.3$  8.83$  8.54$
|307>   Q  0.6645  7.34$  2.42$  16.57$
|308>   Q  0.6645  5.86$  2.57$  17.05$
|309>   Q  -1.3290  6.66$  2.84$  16.86$
|310>   Q  0.6645  18.7$  11.58$  10.24$
|311>   Q  0.6645  18.06$  12.51$  11.27$
|312>   Q  -1.3290  18.26$  11.76$  10.96$
|313>   Q  0.6645  16.82$  8.5$  18.72$
|314>   Q  0.6645  15.88$  8.1$  19.94$
|315>   Q  -1.3290  16.23$  8.63$  19.36$
|316>   Q  0.6645  14.32$  19.78$  12.1$
|317>   Q  0.6645  13.76$  20.09$  10.7$
|318>   Q  -1.3290  13.73$  19.88$  11.52$
|319>   Q  0.6645  3.67$  1.86$  12.63$
|320>   Q  0.6645  4.82$  1.99$  13.55$
|321>   Q  -1.3290  4.35$  2.21$  12.92$
|322>   Q  0.6645  6.53$  14.52$  18.87$
|323>   Q  0.6645  5.2$  14.02$  19.4$
|324>   Q  -1.3290  5.95$  14.48$  19.46$
|325>   Q  0.6645  21.39$  14.16$  14.24$
|326>   Q  0.6645  20.15$  13.21$  14.5$
|327>   Q  -1.3290  20.59$  13.96$  14.39$
|328>   Q  0.6645  16.57$  11.34$  21.36$
|329>   Q  0.6645  16.76$  10.11$  20.41$
|330>   Q  -1.3290  16.89$  10.6$  21.11$
|331>   Q  0.6645  14.55$  15.41$  16.88$
|332>   Q  0.6645  13.95$  15.25$  18.27$
|333>   Q  -1.3290  14.36$  14.98$  17.55$
|334>   Q  0.6645  15.66$  16.44$  5.87$
|335>   Q  0.6645  15.36$  17.78$  6.4$
|336>   Q  -1.3290  15.2$  17.13$  5.96$
|337>   Q  0.6645  10.36$  20.66$  5.5$
|338>   Q  0.6645  11.57$  21.12$  6.48$
|339>   Q  -1.3290  10.93$  20.61$  6.18$
|340>   Q  0.6645  7.41$  18.25$  9.66$
|341>   Q  0.6645  5.97$  17.76$  10.18$
|342>   Q  -1.3290  6.58$  18$  9.59$
|343>   Q  0.6645  19.33$  8.06$  4.26$
|344>   Q  0.6645  19.05$  9.59$  4.18$
|345>   Q  -1.3290  19.51$  8.89$  4.24$
|346>   Q  0.6645  15.61$  13.84$  20.15$
|347>   Q  0.6645  14.65$  12.66$  20.3$
|348>   Q  -1.3290  15.38$  13.02$  20.27$
|349>   Q  0.6645  7.25$  17.56$  5.54$
|350>   Q  0.6645  8.64$  17.39$  4.99$
|351>   Q  -1.3290  7.91$  17.12$  5.26$
|352>   Q  0.6645  9.71$  8.65$  0.81$
|353>   Q  0.6645  9.93$  7.96$  2.01$
|354>   Q  -1.3290  9.6$  8.01$  1.27$
|355>   Q  0.6645  4.26$  6.02$  14.77$
|356>   Q  0.6645  3.65$  7.09$  15.53$
|357>   Q  -1.3290  3.89$  6.75$  14.84$
|358>   Q  0.6645  14.96$  11.04$  1.65$
|359>   Q  0.6645  13.99$  10.64$  0.45$
|360>   Q  -1.3290  14.23$  10.84$  1.26$
|361>   Q  0.6645  16.83$  7.97$  15.82$
|362>   Q  0.6645  15.93$  6.97$  16.69$
|363>   Q  -1.3290  16.58$  7.5$  16.53$
|364>   Q  0.6645  18.08$  18.65$  15.39$
|365>   Q  0.6645  18.61$  20.22$  15.56$
|366>   Q  -1.3290  18.54$  19.33$  15.7$
|367>   Q  0.6645  4.65$  8.7$  11.3$
|368>   Q  0.6645  4.12$  10.15$  11.13$
|369>   Q  -1.3290  4.64$  9.5$  10.96$
|370>   Q  0.6645  15.28$  4.72$  2.03$
|371>   Q  0.6645  15.35$  5.02$  3.48$
|372>   Q  -1.3290  15.2$  5.21$  2.69$
|373>   Q  0.6645  4.56$  6.06$  3.01$
|374>   Q  0.6645  5.27$  7.35$  2.45$
|375>   Q  -1.3290  4.61$  6.83$  2.7$
|376>   Q  0.6645  19.6$  19.25$  12.17$
|377>   Q  0.6645  19.57$  17.73$  11.88$
|378>   Q  -1.3290  19.93$  18.47$  12.09$
|379>   Q  0.6645  17.79$  16.26$  17.76$
|380>   Q  0.6645  18.44$  16.98$  18.96$
|381>   Q  -1.3290  17.95$  16.4$  18.58$
|382>   Q  0.6645  16.69$  10.04$  11.13$
|383>   Q  0.6645  16.16$  8.66$  10.94$
|384>   Q  -1.3290  16.48$  9.29$  11.41$
|385>   Q  0.6645  7.4$  11.32$  19.51$
|386>   Q  0.6645  6.09$  11.44$  18.65$
|387>   Q  -1.3290  6.56$  11.28$  19.36$
|388>   Q  0.6645  5.01$  14.38$  16.26$
|389>   Q  0.6645  3.81$  15.2$  15.97$
|390>   Q  -1.3290  4.61$  15.06$  15.96$
|391>   Q  0.6645  14.25$  10.03$  19.98$
|392>   Q  0.6645  12.73$  10.37$  20.07$
|393>   Q  -1.3290  13.55$  10.47$  20.2$
|394>   Q  0.6645  10.78$  15.85$  15.96$
|395>   Q  0.6645  10.7$  16.43$  17.42$
|396>   Q  -1.3290  10.83$  16.44$  16.59$
|397>   Q  0.6645  17.9$  16.14$  15.4$
|398>   Q  0.6645  16.5$  16.48$  15.94$
|399>   Q  -1.3290  17.34$  16.52$  15.91$
|400>   Q  0.6645  17.28$  17.71$  3.56$
|401>   Q  0.6645  15.9$  17.71$  4.37$
|402>   Q  -1.3290  16.54$  18.04$  3.92$
|403>   Q  0.6645  0.8$  9.82$  14.81$
|404>   Q  0.6645  0.68$  11.04$  13.82$
|405>   Q  -1.3290  1.07$  10.52$  14.38$
|406>   Q  0.6645  0.47$  7.15$  14.39$
|407>   Q  0.6645  1.12$  5.85$  13.89$
|408>   Q  -1.3290  0.56$  6.48$  13.86$
|409>   Q  0.6645  14.92$  3.96$  5.5$
|410>   Q  0.6645  14.04$  4.64$  6.53$
|411>   Q  -1.3290  14.26$  4.43$  5.76$
|412>   Q  0.6645  10.83$  2.16$  10.04$
|413>   Q  0.6645  9.88$  1.22$  9.27$
|414>   Q  -1.3290  10.6$  1.6$  9.41$
|415>   Q  0.6645  18.73$  8.6$  14.9$
|416>   Q  0.6645  18.92$  8.98$  16.47$
|417>   Q  -1.3290  19.06$  9.02$  15.6$
|418>   Q  0.6645  13.81$  4.65$  15.66$
|419>   Q  0.6645  14.96$  3.98$  16.45$
|420>   Q  -1.3290  14.55$  4.63$  16.11$
|421>   Q  0.6645  5.29$  11.97$  8.6$
|422>   Q  0.6645  4.63$  13.23$  8.97$
|423>   Q  -1.3290  4.67$  12.42$  8.89$
|424>   Q  0.6645  2.67$  8.22$  3.66$
|425>   Q  0.6645  1.23$  8.05$  4.1$
|426>   Q  -1.3290  1.99$  8.39$  4.11$
|427>   Q  0.6645  9.64$  2.12$  12.88$
|428>   Q  0.6645  8.76$  0.97$  13.13$
|429>   Q  -1.3290  8.96$  1.76$  13.2$
|430>   Q  0.6645  8.78$  19.72$  9.2$
|431>   Q  0.6645  9.2$  19.76$  10.71$
|432>   Q  -1.3290  9.08$  19.42$  9.96$
|433>   Q  0.6645  12.52$  16.15$  19.68$
|434>   Q  0.6645  13.4$  15.47$  20.77$
|435>   Q  -1.3290  13.24$  15.77$  20$
|436>   Q  0.6645  2.49$  10.96$  6.1$
|437>   Q  0.6645  2.24$  9.41$  5.72$
|438>   Q  -1.3290  2.61$  10.1$  6.12$
|439>   Q  0.6645  19.07$  6.52$  13.39$
|440>   Q  0.6645  20.49$  5.86$  13.84$
|441>   Q  -1.3290  19.64$  5.9$  13.63$
|442>   Q  0.6645  18.65$  13.93$  16.69$
|443>   Q  0.6645  18.87$  14.34$  18.18$
|444>   Q  -1.3290  19.05$  13.99$  17.43$
|445>   Q  0.6645  6.61$  8.37$  3.61$
|446>   Q  0.6645  7.53$  8.25$  2.47$
|447>   Q  -1.3290  6.8$  8.41$  2.81$
|448>   Q  0.6645  17$  4.67$  8.09$
|449>   Q  0.6645  15.61$  4.31$  8.6$
|450>   Q  -1.3290  16.16$  4.75$  8.18$
|451>   Q  0.6645  16.67$  9.58$  3.78$
|452>   Q  0.6645  16.81$  10.14$  5.19$
|453>   Q  -1.3290  16.92$  10.13$  4.35$
|454>   Q  0.6645  3.01$  11.01$  17.32$
|455>   Q  0.6645  2.71$  10.39$  18.67$
|456>   Q  -1.3290  2.78$  10.4$  17.83$
|457>   Q  0.6645  11.41$  14.52$  4.1$
|458>   Q  0.6645  11.4$  13.8$  2.82$
|459>   Q  -1.3290  11.05$  14.23$  3.44$
|460>   Q  0.6645  16.36$  6.49$  6.92$
|461>   Q  0.6645  15.78$  7.41$  5.79$
|462>   Q  -1.3290  16.38$  7.1$  6.33$
|463>   Q  0.6645  11.48$  8.89$  20.39$
|464>   Q  0.6645  10.32$  9.69$  20.25$
|465>   Q  -1.3290  10.89$  9.19$  19.94$
|466>   Q  0.6645  4.14$  4$  3.92$
|467>   Q  0.6645  5.36$  4.14$  3.03$
|468>   Q  -1.3290  4.83$  4.4$  3.61$
|469>   Q  0.6645  10.91$  17.87$  19.37$
|470>   Q  0.6645  10.26$  16.78$  20.28$
|471>   Q  -1.3290  10.55$  17.11$  19.57$
|472>   Q  0.6645  12.14$  6.72$  15.81$
|473>   Q  0.6645  13.27$  7.85$  15.83$
|474>   Q  -1.3290  12.76$  7.21$  15.52$
|475>   Q  0.6645  16.9$  19.2$  7.82$
|476>   Q  0.6645  16.44$  19.97$  6.54$
|477>   Q  -1.3290  16.43$  19.33$  7.09$
|478>   Q  0.6645  13.68$  4.74$  12.76$
|479>   Q  0.6645  12.85$  3.81$  13.63$
|480>   Q  -1.3290  13.25$  4.04$  12.94$
|481>   Q  0.6645  11.9$  16.95$  4.91$
|482>   Q  0.6645  11.81$  18.18$  4.08$
|483>   Q  -1.3290  11.5$  17.48$  4.42$
|484>   Q  0.6645  5.56$  3.67$  11.86$
|485>   Q  0.6645  4.88$  4.89$  11.4$
|486>   Q  -1.3290  5.41$  4.24$  11.31$
|487>   Q  0.6645  15.07$  9.36$  17.2$
|488>   Q  0.6645  14.39$  10.03$  16.16$
|489>   Q  -1.3290  14.46$  9.42$  16.68$
|490>   Q  0.6645  9.88$  3.78$  11.51$
|491>   Q  0.6645  11.27$  3.64$  12.17$
|492>   Q  -1.3290  10.6$  3.4$  11.74$
|493>   Q  0.6645  7.98$  2.62$  5.03$
|494>   Q  0.6645  8.54$  2.61$  6.38$
|495>   Q  -1.3290  8.11$  2.28$  5.75$
|496>   Q  0.6645  17.8$  18.91$  10.07$
|497>   Q  0.6645  17.5$  20.38$  10$
|498>   Q  -1.3290  17.66$  19.62$  9.67$
|499>   Q  0.6645  10.08$  11.93$  19.44$
|500>   Q  0.6645  10.44$  11.37$  17.99$
|501>   Q  -1.3290  9.99$  11.77$  18.6$
|502>   Q  0.6645  4.55$  11.17$  14.81$
|503>   Q  0.6645  3.09$  10.71$  14.34$
|504>   Q  -1.3290  3.81$  11.19$  14.37$
|505>   Q  0.6645  14.04$  6.9$  11.28$
|506>   Q  0.6645  12.75$  6.81$  12.21$
|507>   Q  -1.3290  13.59$  6.88$  12.02$
|508>   Q  0.6645  17.96$  15.03$  13.69$
|509>   Q  0.6645  19.37$  15.48$  13.34$
|510>   Q  -1.3290  18.56$  15.57$  13.45$
|511>   Q  0.6645  17.19$  3.02$  12.33$
|512>   Q  0.6645  15.99$  3.72$  12.94$
|513>   Q  -1.3290  16.39$  3.24$  12.37$
|514>   Q  0.6645  2.85$  3.56$  6$
|515>   Q  0.6645  3.97$  3.8$  6.86$
|516>   Q  -1.3290  3.21$  3.52$  6.72$
|517>   Q  0.6645  2.04$  6.11$  9.73$
|518>   Q  0.6645  2.48$  7.57$  9.79$
|519>   Q  -1.3290  2.23$  6.84$  10.13$
|520>   Q  0.6645  12.15$  15.85$  9.09$
|521>   Q  0.6645  13.24$  14.86$  8.9$
|522>   Q  -1.3290  12.49$  15.18$  8.79$
|523>   Q  0.6645  15.93$  10$  7.99$
|524>   Q  0.6645  16.54$  8.96$  7.09$
|525>   Q  -1.3290  16.5$  9.7$  7.44$
|526>   Q  0.6645  8.3$  20.36$  12.9$
|527>   Q  0.6645  9.74$  20.74$  12.78$
|528>   Q  -1.3290  8.96$  20.76$  12.58$
|529>   Q  0.6645  11.87$  17.88$  15.7$
|530>   Q  0.6645  12.89$  18.95$  16.04$
|531>   Q  -1.3290  12.51$  18.4$  15.52$
|532>   Q  0.6645  5.43$  11.15$  5.48$
|533>   Q  0.6645  4.63$  9.98$  6.03$
|534>   Q  -1.3290  5.34$  10.37$  5.83$
|535>   Q  0.6645  8.18$  15.12$  17.57$
|536>   Q  0.6645  8.98$  13.85$  18.09$
|537>   Q  -1.3290  8.61$  14.37$  17.51$
|538>   Q  0.6645  13.52$  5.7$  2.31$
|539>   Q  0.6645  12.18$  6.33$  2.75$
|540>   Q  -1.3290  12.67$  5.81$  2.33$
|541>   Q  0.6645  2.72$  15.05$  7.97$
|542>   Q  0.6645  4.13$  15.42$  7.86$
|543>   Q  -1.3290  3.42$  15.11$  7.57$
|544>   Q  0.6645  7.36$  16.48$  2.33$
|545>   Q  0.6645  7.95$  15.68$  3.39$
|546>   Q  -1.3290  7.6$  15.78$  2.63$
|547>   Q  0.6645  9.08$  1.84$  15.21$
|548>   Q  0.6645  8.6$  0.78$  16.24$
|549>   Q  -1.3290  8.99$  1.48$  16.01$
|550>   Q  0.6645  6.72$  8.81$  5.55$
|551>   Q  0.6645  6.52$  7.38$  5.97$
|552>   Q  -1.3290  6.74$  7.97$  5.45$
|553>   Q  0.6645  8.71$  17.21$  18.32$
|554>   Q  0.6645  7.47$  17.39$  17.23$
|555>   Q  -1.3290  7.97$  17.08$  17.87$
|556>   Q  0.6645  18.38$  6.98$  10.04$
|557>   Q  0.6645  18.97$  8.14$  9$
|558>   Q  -1.3290  18.71$  7.36$  9.32$
|559>   Q  0.6645  7.03$  13.17$  17.22$
|560>   Q  0.6645  5.83$  12.43$  16.81$
|561>   Q  -1.3290  6.25$  13.03$  17.19$
|562>   Q  0.6645  18.23$  10.87$  17.88$
|563>   Q  0.6645  19.62$  10.53$  17.89$
|564>   Q  -1.3290  18.87$  10.44$  18.18$
|565>   Q  0.6645  18.09$  6.5$  5.6$
|566>   Q  0.6645  19.64$  6.28$  5.28$
|567>   Q  -1.3290  18.79$  6.2$  5.19$
|568>   Q  0.6645  17.16$  4.95$  11.54$
|569>   Q  0.6645  18.66$  5.2$  11.43$
|570>   Q  -1.3290  17.84$  5.36$  11.28$
|571>   Q  0.6645  1.09$  13.2$  12.51$
|572>   Q  0.6645  2$  14.27$  13.31$
|573>   Q  -1.3290  1.3$  13.91$  12.94$
|574>   Q  0.6645  11.77$  4.13$  8.25$
|575>   Q  0.6645  13.21$  3.96$  8.84$
|576>   Q  -1.3290  12.59$  4.29$  8.35$
|577>   Q  0.6645  13.11$  0.41$  12.95$
|578>   Q  0.6645  13.78$  1.82$  12.88$
|579>   Q  -1.3290  13.75$  0.97$  12.93$
|580>   Q  0.6645  3.91$  12.36$  10.98$
|581>   Q  0.6645  3.65$  11.87$  12.48$
|582>   Q  -1.3290  3.49$  11.98$  11.65$
|583>   Q  0.6645  19.72$  10.14$  8.38$
|584>   Q  0.6645  18.26$  10.4$  8.44$
|585>   Q  -1.3290  19.02$  10.28$  8.79$
|586>   Q  0.6645  8.99$  20.57$  7.02$
|587>   Q  0.6645  7.56$  20.02$  7.18$
|588>   Q  -1.3290  8.29$  20.36$  7.45$
|589>   Q  0.6645  15.71$  17.49$  10.29$
|590>   Q  0.6645  14.45$  17.64$  9.55$
|591>   Q  -1.3290  15.19$  17.29$  9.69$
|592>   Q  0.6645  5.67$  14.11$  11.1$
|593>   Q  0.6645  4.57$  14.54$  11.94$
|594>   Q  -1.3290  4.9$  14.31$  11.22$
|595>   Q  0.6645  10.97$  19.01$  7.63$
|596>   Q  0.6645  10.61$  18.53$  9.07$
|597>   Q  -1.3290  10.97$  18.46$  8.29$
|598>   Q  0.6645  17.1$  15.08$  4.72$
|599>   Q  0.6645  16.11$  13.92$  5.24$
|600>   Q  -1.3290  16.59$  14.66$  5.26$
|601>   Q  0.6645  3.56$  10.9$  3.73$
|602>   Q  0.6645  3.73$  10.98$  2.21$
|603>   Q  -1.3290  3.62$  11.27$  3$
|604>   Q  0.6645  15.13$  2.18$  9.24$
|605>   Q  0.6645  15.13$  2.97$  10.56$
|606>   Q  -1.3290  14.9$  2.79$  9.76$
|607>   Q  0.6645  19.54$  9.87$  11.57$
|608>   Q  0.6645  20.54$  8.69$  11.55$
|609>   Q  -1.3290  20.16$  9.39$  11.86$
|610>   Q  0.6645  5.88$  4.42$  5.57$
|611>   Q  0.6645  6.42$  3.47$  6.73$
|612>   Q  -1.3290  6.01$  4.15$  6.39$
|613>   Q  0.6645  21.52$  14.34$  10.63$
|614>   Q  0.6645  20.96$  12.99$  11.02$
|615>   Q  -1.3290  20.95$  13.73$  10.6$
|616>   Q  0.6645  4.71$  6.95$  7.78$
|617>   Q  0.6645  5.6$  5.74$  7.58$
|618>   Q  -1.3290  5.41$  6.54$  7.74$
|619>   Q  0.6645  17.96$  12.97$  14$
|620>   Q  0.6645  16.49$  13.24$  14.35$
|621>   Q  -1.3290  17.32$  13.41$  14.31$
|622>   Q  0.6645  7.52$  18.21$  13.76$
|623>   Q  0.6645  6.3$  18.79$  13.05$
|624>   Q  -1.3290  6.92$  18.8$  13.59$
|625>   Q  0.6645  3.02$  12.24$  7.66$
|626>   Q  0.6645  2.7$  13.42$  6.67$
|627>   Q  -1.3290  2.56$  12.67$  7.04$
|628>   Q  0.6645  13.29$  9.92$  2.76$
|629>   Q  0.6645  13.11$  10.2$  4.41$
|630>   Q  -1.3290  13.11$  9.76$  3.62$
|631>   Q  0.6645  5.39$  2.17$  8.51$
|632>   Q  0.6645  5.83$  3.34$  9.44$
|633>   Q  -1.3290  5.95$  2.71$  8.88$
|634>   Q  0.6645  17.31$  14.33$  10.19$
|635>   Q  0.6645  18.17$  14.89$  11.3$
|636>   Q  -1.3290  17.55$  14.44$  10.99$
|637>   Q  0.6645  18.8$  5.37$  15.7$
|638>   Q  0.6645  18.06$  6.37$  16.59$
|639>   Q  -1.3290  18.61$  5.74$  16.44$
|640>   Q  0.6645  19.79$  10.99$  13.28$
|641>   Q  0.6645  19.49$  10.91$  14.74$
|642>   Q  -1.3290  19.61$  11.31$  14.03$
|643> *
|644> 
|645>                          ****END OF INPUT****
================================================================================

                     *******************************
                     * Energy+Gradient Calculation *
                     *******************************

---------------------------------
CARTESIAN COORDINATES (ANGSTROEM)
---------------------------------
  C     12.050000   12.300000   11.510000
  H     11.480000   12.350000   12.370000
  H     11.750000   13.110000   10.880000
  C     11.930000   10.930000   10.910000
  H     12.360000   10.920000    9.920000
  H     12.510000   10.210000   11.440000
  C     10.450000   10.430000   11.060000
  H      9.800000   11.310000   10.850000
  H     10.460000   10.010000   12.060000
  C     10.110000    9.420000   10.110000
  H     10.790000    8.580000   10.080000
  H     10.100000    9.960000    9.140000
  O      8.840000    8.850000   10.450000
  H      8.150000    9.520000   10.710000
  O     13.370000   12.520000   11.890000
  H     13.540000   11.910000   12.550000
  O      8.780000   11.300000   14.580000
  H      8.900000   11.870000   13.800000
  H      8.670000   10.440000   14.080000
  O      7.300000    7.010000   12.130000
  H      6.340000    6.880000   12.350000
  H      7.430000    6.620000   11.260000
  O     10.330000    8.320000    7.130000
  H      9.730000    7.590000    7.380000
  H     11.130000    7.900000    7.480000
  O      9.490000   14.780000   10.350000
  H      8.990000   15.360000    9.770000
  H      9.930000   14.280000    9.660000
  O     10.800000   15.580000   12.770000
  H     10.420000   15.100000   11.990000
  H     11.310000   16.170000   12.190000
  O      5.810000   10.610000   15.910000
  H      6.670000   10.690000   15.480000
  H      5.660000    9.730000   16.180000
  O      8.940000   16.650000    7.860000
  H      8.630000   16.800000    6.960000
  H      9.810000   17.090000    7.870000
  O      7.780000   13.750000    7.050000
  H      8.030000   13.600000    6.130000
  H      8.630000   13.840000    7.480000
  O     14.990000   11.210000    9.310000
  H     14.590000   10.990000   10.160000
  H     14.890000   12.170000    9.120000
  O     13.150000   10.910000    6.290000
  H     12.220000   10.800000    6.220000
  H     13.420000   10.690000    7.180000
  O      4.460000    6.850000   11.870000
  H      3.540000    6.700000   11.490000
  H      4.170000    6.880000   12.790000
  O      8.340000    4.770000   13.740000
  H      8.400000    3.900000   13.350000
  H      8.120000    5.240000   12.920000
  O      6.970000   11.040000   10.820000
  H      7.180000   11.090000    9.900000
  H      6.200000   10.400000   10.890000
  O     11.000000    7.060000   12.530000
  H     10.650000    7.870000   12.940000
  H     10.190000    6.760000   12.110000
  O      8.330000   16.850000   14.650000
  H      9.060000   16.870000   14.090000
  H      8.740000   16.750000   15.550000
  O     14.490000   14.940000   12.010000
  H     14.100000   14.080000   12.130000
  H     15.410000   14.670000   11.960000
  O     10.350000   13.410000    8.140000
  H     11.120000   14.020000    8.180000
  H     10.500000   12.610000    7.570000
  O     14.990000   12.860000   14.440000
  H     14.930000   11.890000   14.260000
  H     14.160000   13.050000   14.920000
  O     12.720000   17.030000   11.140000
  H     13.510000   16.440000   11.200000
  H     12.970000   17.910000   11.390000
  O     11.140000   10.630000   15.850000
  H     11.820000   11.250000   16.120000
  H     10.460000   11.230000   15.540000
  O      8.110000    6.700000    8.520000
  H      7.200000    7.010000    8.250000
  H      8.360000    7.400000    9.160000
  O      8.280000    4.650000   10.550000
  H      7.350000    4.460000   10.720000
  H      8.360000    4.880000    9.650000
  O     15.180000   14.380000    9.160000
  H     15.290000   15.330000    9.050000
  H     15.030000   14.290000   10.160000
  O     13.220000    7.050000    7.650000
  H     13.420000    7.150000    6.720000
  H     12.890000    6.160000    7.680000
  O     10.280000   14.320000   15.160000
  H      9.460000   14.350000   15.710000
  H     10.300000   14.770000   14.300000
  O      8.680000    5.800000    5.530000
  H      8.150000    5.410000    6.280000
  H      8.230000    6.660000    5.500000
  O     12.090000    9.450000   13.660000
  H     12.300000    8.600000   14.090000
  H     11.670000    9.930000   14.420000
  O      8.670000    8.710000   13.730000
  H      8.310000    8.300000   14.480000
  H      8.340000    8.130000   13.020000
  O     10.410000   10.770000    5.990000
  H      9.940000    9.920000    6.170000
  H      9.860000   11.350000    5.440000
  O      8.310000   12.810000   12.300000
  H      8.470000   13.470000   11.660000
  H      7.730000   12.180000   11.890000
  O     14.680000   10.380000   13.760000
  H     15.310000    9.900000   13.240000
  H     13.800000    9.960000   13.600000
  Q      6.500000   21.310000    9.520000
  Q      6.120000   19.810000    9.680000
  Q      5.950000   20.630000    9.550000
  Q     10.000000   20.150000   15.230000
  Q      8.670000   20.170000   15.830000
  Q      9.430000   19.930000   15.790000
  Q     11.970000   13.310000   15.740000
  Q     13.020000   13.410000   16.830000
  Q     12.640000   13.040000   16.190000
  Q     21.320000   12.350000    8.910000
  Q     22.290000   12.160000    7.760000
  Q     21.710000   11.940000    8.310000
  Q      4.920000   15.520000    5.880000
  Q      6.000000   16.160000    4.950000
  Q      5.260000   15.780000    5.130000
  Q      6.530000    4.480000   14.440000
  Q      5.660000    3.980000   15.500000
  Q      5.790000    4.360000   14.800000
  Q      9.740000   13.500000   21.160000
  Q     11.190000   12.950000   21.600000
  Q     10.460000   12.980000   21.140000
  Q     13.970000    7.940000    4.330000
  Q     13.980000    6.350000    4.730000
  Q     14.120000    7.220000    4.800000
  Q      8.190000    0.190000    8.480000
  Q      7.670000    1.550000    9.240000
  Q      8.050000    0.780000    9.130000
  Q      9.300000   13.360000    4.040000
  Q      8.020000   12.510000    3.800000
  Q      8.640000   12.860000    4.270000
  Q     13.640000   16.600000   15.050000
  Q     14.560000   15.800000   14.230000
  Q     14.330000   16.130000   14.930000
  Q      5.440000   16.640000   12.230000
  Q      4.520000   17.620000   11.470000
  Q      5.240000   17.370000   11.860000
  Q      4.490000   12.690000    4.390000
  Q      5.620000   13.580000    4.750000
  Q      5.110000   12.940000    4.850000
  Q      6.130000   18.300000   15.670000
  Q      5.420000   17.080000   16.170000
  Q      5.730000   17.820000   16.250000
  Q      6.890000   10.700000    7.270000
  Q      7.610000   11.950000    7.520000
  Q      7.240000   11.290000    7.760000
  Q      8.580000   10.710000    0.810000
  Q      9.600000   11.390000   -0.120000
  Q      9.170000   10.740000    0.220000
  Q     20.060000   15.400000   10.480000
  Q     19.550000   16.290000    9.470000
  Q     19.760000   16.110000   10.220000
  Q     14.060000   12.470000    5.510000
  Q     13.960000   13.980000    5.080000
  Q     14.240000   13.170000    5.060000
  Q     19.460000   14.530000    6.910000
  Q     17.970000   14.770000    6.830000
  Q     18.740000   14.880000    7.140000
  Q     13.460000   16.360000    6.010000
  Q     12.590000   15.200000    6.690000
  Q     12.840000   15.720000    6.070000
  Q     14.670000   19.200000    8.160000
  Q     13.060000   19.030000    8.180000
  Q     13.850000   19.310000    8.430000
  Q     10.560000    3.370000    6.570000
  Q     10.150000    2.570000    7.760000
  Q     10.070000    3.220000    7.230000
  Q     16.470000   18.540000   12.530000
  Q     17.270000   17.210000   12.460000
  Q     16.950000   17.960000   12.170000
  Q     17.320000    8.150000   13.100000
  Q     16.980000    6.960000   13.930000
  Q     17.330000    7.730000   13.810000
  Q     11.930000   21.700000   14.880000
  Q     12.360000   20.310000   14.230000
  Q     11.910000   21.040000   14.350000
  Q      7.030000   14.180000   13.200000
  Q      7.120000   15.400000   14.090000
  Q      6.750000   14.860000   13.560000
  Q     11.990000    2.790000   15.700000
  Q     11.300000    4.210000   15.640000
  Q     11.940000    3.630000   15.490000
  Q     11.590000    7.650000    0.700000
  Q     12.990000    8.090000    0.490000
  Q     12.170000    8.140000    0.400000
  Q      2.350000    1.810000   10.090000
  Q      2.620000    2.660000    8.820000
  Q      2.410000    1.950000    9.260000
  Q     15.750000    5.470000   14.750000
  Q     15.300000    6.080000   13.430000
  Q     15.790000    5.650000   13.940000
  Q      7.870000    7.810000   16.850000
  Q      6.710000    7.010000   16.200000
  Q      7.240000    7.670000   16.300000
  Q     16.140000   12.760000   17.230000
  Q     16.210000   12.230000   18.570000
  Q     16.340000   12.180000   17.780000
  Q     21.660000    6.820000   11.930000
  Q     22.000000    6.880000   10.480000
  Q     21.470000    6.730000   11.110000
  Q      3.110000   16.210000   13.510000
  Q      4.330000   15.360000   14.090000
  Q      3.630000   15.530000   13.580000
  Q     15.690000    6.390000    9.470000
  Q     14.490000    7.160000    9.060000
  Q     15.100000    6.990000    9.560000
  Q      6.400000   16.070000    8.600000
  Q      6.550000   14.630000    7.980000
  Q      6.130000   15.310000    8.360000
  Q      2.670000   12.290000   15.670000
  Q      1.480000   12.880000   16.540000
  Q      2.290000   12.810000   16.240000
  Q      0.100000   10.690000   11.470000
  Q      1.260000   11.710000   11.170000
  Q      0.490000   11.460000   11.420000
  Q      6.780000   10.480000    2.310000
  Q      6.490000   11.850000    1.880000
  Q      6.950000   11.290000    2.270000
  Q     16.450000   12.170000    3.280000
  Q     15.420000   13.210000    3.170000
  Q     15.970000   12.700000    2.850000
  Q     10.170000    8.320000   18.040000
  Q      9.880000    9.130000   16.780000
  Q      9.910000    8.430000   17.250000
  Q      2.660000   16.580000   10.360000
  Q      4.050000   15.900000   10.370000
  Q      3.490000   16.480000   10.140000
  Q     12.270000    2.060000    5.210000
  Q     12.540000    3.600000    5.280000
  Q     12.080000    2.880000    5.240000
  Q      3.510000    4.050000   13.780000
  Q      2.300000    3.950000   12.750000
  Q      2.740000    4.240000   13.430000
  Q     13.660000    7.470000   17.880000
  Q     13.690000    6.030000   17.310000
  Q     13.630000    6.630000   17.920000
  Q      9.620000    5.560000   15.270000
  Q      9.970000    6.320000   16.500000
  Q     10.030000    5.710000   15.960000
  Q      3.890000    7.300000   18.150000
  Q      2.980000    8.340000   17.500000
  Q      3.350000    7.590000   17.560000
  Q     21.590000    7.660000   16.170000
  Q     20.840000    8.810000   15.500000
  Q     21.530000    8.380000   15.710000
  Q     12.940000   12.260000    1.490000
  Q     12.970000   13.810000    1.400000
  Q     12.620000   13.050000    1.480000
  Q      7.090000    4.760000   18.060000
  Q      6.500000    5.840000   18.850000
  Q      7.140000    5.410000   18.550000
  Q     17.930000   18.230000    6.370000
  Q     18.640000   17.000000    6.740000
  Q     18.600000   17.750000    6.500000
  Q     10.090000    3.280000    3.940000
  Q      9.120000    4.500000    4.270000
  Q      9.330000    3.750000    3.910000
  Q     14.450000   18.820000   13.950000
  Q     15.460000   20.000000   14.300000
  Q     15.100000   19.370000   13.830000
  Q     12.240000    1.190000    8.430000
  Q     13.340000    0.140000    8.490000
  Q     12.930000    0.790000    8.140000
  Q      0.490000    4.950000    8.520000
  Q      1.580000    4.250000    7.890000
  Q      1.200000    4.590000    8.530000
  Q     11.710000    8.160000    3.670000
  Q     10.590000    7.500000    4.470000
  Q     11.050000    7.680000    3.780000
  Q      3.960000    9.100000    9.050000
  Q      2.890000    9.210000    7.840000
  Q      3.300000    8.830000    8.540000
  Q      7.340000    2.420000   16.570000
  Q      5.860000    2.570000   17.050000
  Q      6.660000    2.840000   16.860000
  Q     18.700000   11.580000   10.240000
  Q     18.060000   12.510000   11.270000
  Q     18.260000   11.760000   10.960000
  Q     16.820000    8.500000   18.720000
  Q     15.880000    8.100000   19.940000
  Q     16.230000    8.630000   19.360000
  Q     14.320000   19.780000   12.100000
  Q     13.760000   20.090000   10.700000
  Q     13.730000   19.880000   11.520000
  Q      3.670000    1.860000   12.630000
  Q      4.820000    1.990000   13.550000
  Q      4.350000    2.210000   12.920000
  Q      6.530000   14.520000   18.870000
  Q      5.200000   14.020000   19.400000
  Q      5.950000   14.480000   19.460000
  Q     21.390000   14.160000   14.240000
  Q     20.150000   13.210000   14.500000
  Q     20.590000   13.960000   14.390000
  Q     16.570000   11.340000   21.360000
  Q     16.760000   10.110000   20.410000
  Q     16.890000   10.600000   21.110000
  Q     14.550000   15.410000   16.880000
  Q     13.950000   15.250000   18.270000
  Q     14.360000   14.980000   17.550000
  Q     15.660000   16.440000    5.870000
  Q     15.360000   17.780000    6.400000
  Q     15.200000   17.130000    5.960000
  Q     10.360000   20.660000    5.500000
  Q     11.570000   21.120000    6.480000
  Q     10.930000   20.610000    6.180000
  Q      7.410000   18.250000    9.660000
  Q      5.970000   17.760000   10.180000
  Q      6.580000   18.000000    9.590000
  Q     19.330000    8.060000    4.260000
  Q     19.050000    9.590000    4.180000
  Q     19.510000    8.890000    4.240000
  Q     15.610000   13.840000   20.150000
  Q     14.650000   12.660000   20.300000
  Q     15.380000   13.020000   20.270000
  Q      7.250000   17.560000    5.540000
  Q      8.640000   17.390000    4.990000
  Q      7.910000   17.120000    5.260000
  Q      9.710000    8.650000    0.810000
  Q      9.930000    7.960000    2.010000
  Q      9.600000    8.010000    1.270000
  Q      4.260000    6.020000   14.770000
  Q      3.650000    7.090000   15.530000
  Q      3.890000    6.750000   14.840000
  Q     14.960000   11.040000    1.650000
  Q     13.990000   10.640000    0.450000
  Q     14.230000   10.840000    1.260000
  Q     16.830000    7.970000   15.820000
  Q     15.930000    6.970000   16.690000
  Q     16.580000    7.500000   16.530000
  Q     18.080000   18.650000   15.390000
  Q     18.610000   20.220000   15.560000
  Q     18.540000   19.330000   15.700000
  Q      4.650000    8.700000   11.300000
  Q      4.120000   10.150000   11.130000
  Q      4.640000    9.500000   10.960000
  Q     15.280000    4.720000    2.030000
  Q     15.350000    5.020000    3.480000
  Q     15.200000    5.210000    2.690000
  Q      4.560000    6.060000    3.010000
  Q      5.270000    7.350000    2.450000
  Q      4.610000    6.830000    2.700000
  Q     19.600000   19.250000   12.170000
  Q     19.570000   17.730000   11.880000
  Q     19.930000   18.470000   12.090000
  Q     17.790000   16.260000   17.760000
  Q     18.440000   16.980000   18.960000
  Q     17.950000   16.400000   18.580000
  Q     16.690000   10.040000   11.130000
  Q     16.160000    8.660000   10.940000
  Q     16.480000    9.290000   11.410000
  Q      7.400000   11.320000   19.510000
  Q      6.090000   11.440000   18.650000
  Q      6.560000   11.280000   19.360000
  Q      5.010000   14.380000   16.260000
  Q      3.810000   15.200000   15.970000
  Q      4.610000   15.060000   15.960000
  Q     14.250000   10.030000   19.980000
  Q     12.730000   10.370000   20.070000
  Q     13.550000   10.470000   20.200000
  Q     10.780000   15.850000   15.960000
  Q     10.700000   16.430000   17.420000
  Q     10.830000   16.440000   16.590000
  Q     17.900000   16.140000   15.400000
  Q     16.500000   16.480000   15.940000
  Q     17.340000   16.520000   15.910000
  Q     17.280000   17.710000    3.560000
  Q     15.900000   17.710000    4.370000
  Q     16.540000   18.040000    3.920000
  Q      0.800000    9.820000   14.810000
  Q      0.680000   11.040000   13.820000
  Q      1.070000   10.520000   14.380000
  Q      0.470000    7.150000   14.390000
  Q      1.120000    5.850000   13.890000
  Q      0.560000    6.480000   13.860000
  Q     14.920000    3.960000    5.500000
  Q     14.040000    4.640000    6.530000
  Q     14.260000    4.430000    5.760000
  Q     10.830000    2.160000   10.040000
  Q      9.880000    1.220000    9.270000
  Q     10.600000    1.600000    9.410000
  Q     18.730000    8.600000   14.900000
  Q     18.920000    8.980000   16.470000
  Q     19.060000    9.020000   15.600000
  Q     13.810000    4.650000   15.660000
  Q     14.960000    3.980000   16.450000
  Q     14.550000    4.630000   16.110000
  Q      5.290000   11.970000    8.600000
  Q      4.630000   13.230000    8.970000
  Q      4.670000   12.420000    8.890000
  Q      2.670000    8.220000    3.660000
  Q      1.230000    8.050000    4.100000
  Q      1.990000    8.390000    4.110000
  Q      9.640000    2.120000   12.880000
  Q      8.760000    0.970000   13.130000
  Q      8.960000    1.760000   13.200000
  Q      8.780000   19.720000    9.200000
  Q      9.200000   19.760000   10.710000
  Q      9.080000   19.420000    9.960000
  Q     12.520000   16.150000   19.680000
  Q     13.400000   15.470000   20.770000
  Q     13.240000   15.770000   20.000000
  Q      2.490000   10.960000    6.100000
  Q      2.240000    9.410000    5.720000
  Q      2.610000   10.100000    6.120000
  Q     19.070000    6.520000   13.390000
  Q     20.490000    5.860000   13.840000
  Q     19.640000    5.900000   13.630000
  Q     18.650000   13.930000   16.690000
  Q     18.870000   14.340000   18.180000
  Q     19.050000   13.990000   17.430000
  Q      6.610000    8.370000    3.610000
  Q      7.530000    8.250000    2.470000
  Q      6.800000    8.410000    2.810000
  Q     17.000000    4.670000    8.090000
  Q     15.610000    4.310000    8.600000
  Q     16.160000    4.750000    8.180000
  Q     16.670000    9.580000    3.780000
  Q     16.810000   10.140000    5.190000
  Q     16.920000   10.130000    4.350000
  Q      3.010000   11.010000   17.320000
  Q      2.710000   10.390000   18.670000
  Q      2.780000   10.400000   17.830000
  Q     11.410000   14.520000    4.100000
  Q     11.400000   13.800000    2.820000
  Q     11.050000   14.230000    3.440000
  Q     16.360000    6.490000    6.920000
  Q     15.780000    7.410000    5.790000
  Q     16.380000    7.100000    6.330000
  Q     11.480000    8.890000   20.390000
  Q     10.320000    9.690000   20.250000
  Q     10.890000    9.190000   19.940000
  Q      4.140000    4.000000    3.920000
  Q      5.360000    4.140000    3.030000
  Q      4.830000    4.400000    3.610000
  Q     10.910000   17.870000   19.370000
  Q     10.260000   16.780000   20.280000
  Q     10.550000   17.110000   19.570000
  Q     12.140000    6.720000   15.810000
  Q     13.270000    7.850000   15.830000
  Q     12.760000    7.210000   15.520000
  Q     16.900000   19.200000    7.820000
  Q     16.440000   19.970000    6.540000
  Q     16.430000   19.330000    7.090000
  Q     13.680000    4.740000   12.760000
  Q     12.850000    3.810000   13.630000
  Q     13.250000    4.040000   12.940000
  Q     11.900000   16.950000    4.910000
  Q     11.810000   18.180000    4.080000
  Q     11.500000   17.480000    4.420000
  Q      5.560000    3.670000   11.860000
  Q      4.880000    4.890000   11.400000
  Q      5.410000    4.240000   11.310000
  Q     15.070000    9.360000   17.200000
  Q     14.390000   10.030000   16.160000
  Q     14.460000    9.420000   16.680000
  Q      9.880000    3.780000   11.510000
  Q     11.270000    3.640000   12.170000
  Q     10.600000    3.400000   11.740000
  Q      7.980000    2.620000    5.030000
  Q      8.540000    2.610000    6.380000
  Q      8.110000    2.280000    5.750000
  Q     17.800000   18.910000   10.070000
  Q     17.500000   20.380000   10.000000
  Q     17.660000   19.620000    9.670000
  Q     10.080000   11.930000   19.440000
  Q     10.440000   11.370000   17.990000
  Q      9.990000   11.770000   18.600000
  Q      4.550000   11.170000   14.810000
  Q      3.090000   10.710000   14.340000
  Q      3.810000   11.190000   14.370000
  Q     14.040000    6.900000   11.280000
  Q     12.750000    6.810000   12.210000
  Q     13.590000    6.880000   12.020000
  Q     17.960000   15.030000   13.690000
  Q     19.370000   15.480000   13.340000
  Q     18.560000   15.570000   13.450000
  Q     17.190000    3.020000   12.330000
  Q     15.990000    3.720000   12.940000
  Q     16.390000    3.240000   12.370000
  Q      2.850000    3.560000    6.000000
  Q      3.970000    3.800000    6.860000
  Q      3.210000    3.520000    6.720000
  Q      2.040000    6.110000    9.730000
  Q      2.480000    7.570000    9.790000
  Q      2.230000    6.840000   10.130000
  Q     12.150000   15.850000    9.090000
  Q     13.240000   14.860000    8.900000
  Q     12.490000   15.180000    8.790000
  Q     15.930000   10.000000    7.990000
  Q     16.540000    8.960000    7.090000
  Q     16.500000    9.700000    7.440000
  Q      8.300000   20.360000   12.900000
  Q      9.740000   20.740000   12.780000
  Q      8.960000   20.760000   12.580000
  Q     11.870000   17.880000   15.700000
  Q     12.890000   18.950000   16.040000
  Q     12.510000   18.400000   15.520000
  Q      5.430000   11.150000    5.480000
  Q      4.630000    9.980000    6.030000
  Q      5.340000   10.370000    5.830000
  Q      8.180000   15.120000   17.570000
  Q      8.980000   13.850000   18.090000
  Q      8.610000   14.370000   17.510000
  Q     13.520000    5.700000    2.310000
  Q     12.180000    6.330000    2.750000
  Q     12.670000    5.810000    2.330000
  Q      2.720000   15.050000    7.970000
  Q      4.130000   15.420000    7.860000
  Q      3.420000   15.110000    7.570000
  Q      7.360000   16.480000    2.330000
  Q      7.950000   15.680000    3.390000
  Q      7.600000   15.780000    2.630000
  Q      9.080000    1.840000   15.210000
  Q      8.600000    0.780000   16.240000
  Q      8.990000    1.480000   16.010000
  Q      6.720000    8.810000    5.550000
  Q      6.520000    7.380000    5.970000
  Q      6.740000    7.970000    5.450000
  Q      8.710000   17.210000   18.320000
  Q      7.470000   17.390000   17.230000
  Q      7.970000   17.080000   17.870000
  Q     18.380000    6.980000   10.040000
  Q     18.970000    8.140000    9.000000
  Q     18.710000    7.360000    9.320000
  Q      7.030000   13.170000   17.220000
  Q      5.830000   12.430000   16.810000
  Q      6.250000   13.030000   17.190000
  Q     18.230000   10.870000   17.880000
  Q     19.620000   10.530000   17.890000
  Q     18.870000   10.440000   18.180000
  Q     18.090000    6.500000    5.600000
  Q     19.640000    6.280000    5.280000
  Q     18.790000    6.200000    5.190000
  Q     17.160000    4.950000   11.540000
  Q     18.660000    5.200000   11.430000
  Q     17.840000    5.360000   11.280000
  Q      1.090000   13.200000   12.510000
  Q      2.000000   14.270000   13.310000
  Q      1.300000   13.910000   12.940000
  Q     11.770000    4.130000    8.250000
  Q     13.210000    3.960000    8.840000
  Q     12.590000    4.290000    8.350000
  Q     13.110000    0.410000   12.950000
  Q     13.780000    1.820000   12.880000
  Q     13.750000    0.970000   12.930000
  Q      3.910000   12.360000   10.980000
  Q      3.650000   11.870000   12.480000
  Q      3.490000   11.980000   11.650000
  Q     19.720000   10.140000    8.380000
  Q     18.260000   10.400000    8.440000
  Q     19.020000   10.280000    8.790000
  Q      8.990000   20.570000    7.020000
  Q      7.560000   20.020000    7.180000
  Q      8.290000   20.360000    7.450000
  Q     15.710000   17.490000   10.290000
  Q     14.450000   17.640000    9.550000
  Q     15.190000   17.290000    9.690000
  Q      5.670000   14.110000   11.100000
  Q      4.570000   14.540000   11.940000
  Q      4.900000   14.310000   11.220000
  Q     10.970000   19.010000    7.630000
  Q     10.610000   18.530000    9.070000
  Q     10.970000   18.460000    8.290000
  Q     17.100000   15.080000    4.720000
  Q     16.110000   13.920000    5.240000
  Q     16.590000   14.660000    5.260000
  Q      3.560000   10.900000    3.730000
  Q      3.730000   10.980000    2.210000
  Q      3.620000   11.270000    3.000000
  Q     15.130000    2.180000    9.240000
  Q     15.130000    2.970000   10.560000
  Q     14.900000    2.790000    9.760000
  Q     19.540000    9.870000   11.570000
  Q     20.540000    8.690000   11.550000
  Q     20.160000    9.390000   11.860000
  Q      5.880000    4.420000    5.570000
  Q      6.420000    3.470000    6.730000
  Q      6.010000    4.150000    6.390000
  Q     21.520000   14.340000   10.630000
  Q     20.960000   12.990000   11.020000
  Q     20.950000   13.730000   10.600000
  Q      4.710000    6.950000    7.780000
  Q      5.600000    5.740000    7.580000
  Q      5.410000    6.540000    7.740000
  Q     17.960000   12.970000   14.000000
  Q     16.490000   13.240000   14.350000
  Q     17.320000   13.410000   14.310000
  Q      7.520000   18.210000   13.760000
  Q      6.300000   18.790000   13.050000
  Q      6.920000   18.800000   13.590000
  Q      3.020000   12.240000    7.660000
  Q      2.700000   13.420000    6.670000
  Q      2.560000   12.670000    7.040000
  Q     13.290000    9.920000    2.760000
  Q     13.110000   10.200000    4.410000
  Q     13.110000    9.760000    3.620000
  Q      5.390000    2.170000    8.510000
  Q      5.830000    3.340000    9.440000
  Q      5.950000    2.710000    8.880000
  Q     17.310000   14.330000   10.190000
  Q     18.170000   14.890000   11.300000
  Q     17.550000   14.440000   10.990000
  Q     18.800000    5.370000   15.700000
  Q     18.060000    6.370000   16.590000
  Q     18.610000    5.740000   16.440000
  Q     19.790000   10.990000   13.280000
  Q     19.490000   10.910000   14.740000
  Q     19.610000   11.310000   14.030000

----------------------------
CARTESIAN COORDINATES (A.U.)
----------------------------
  NO LB      ZA    FRAG     MASS         X           Y           Z
   0 C     6.0000    0    12.011   22.771200   23.243631   21.750748
   1 H     1.0000    0     1.008   21.694056   23.338118   23.375912
   2 H     1.0000    0     1.008   22.204282   24.774310   20.560220
   3 C     6.0000    0    12.011   22.544433   20.654707   20.616912
   4 H     1.0000    0     1.008   23.357015   20.635809   18.746083
   5 H     1.0000    0     1.008   23.640474   19.294104   21.618467
   6 C     6.0000    0    12.011   19.747638   19.709844   20.900371
   7 H     1.0000    0     1.008   18.519316   21.372803   20.503529
   8 H     1.0000    0     1.008   19.766535   18.916159   22.790097
   9 C     6.0000    0    12.011   19.105131   17.801220   19.105131
  10 H     1.0000    0     1.008   20.390145   16.213850   19.048439
  11 H     1.0000    0     1.008   19.086234   18.821672   17.272097
  12 O     8.0000    0    15.999   16.705179   16.724076   19.747638
  13 H     1.0000    0     1.008   15.401268   17.990193   20.238967
  14 O     8.0000    0    15.999   25.265638   23.659371   22.468844
  15 H     1.0000    0     1.008   25.586892   22.506638   23.716063
  16 O     8.0000    0    15.999   16.591795   21.353905   27.552207
  17 H     1.0000    0     1.008   16.818563   22.431049   26.078221
  18 H     1.0000    0     1.008   16.383926   19.728741   26.607344
  19 O     8.0000    0    15.999   13.795001   13.246980   22.922378
  20 H     1.0000    0     1.008   11.980864   13.001316   23.338118
  21 H     1.0000    0     1.008   14.040665   12.509987   21.278316
  22 O     8.0000    0    15.999   19.520871   15.722521   13.473747
  23 H     1.0000    0     1.008   18.387035   14.343021   13.946179
  24 H     1.0000    0     1.008   21.032652   14.928836   14.135151
  25 O     8.0000    0    15.999   17.933501   27.930152   19.558665
  26 H     1.0000    0     1.008   16.988638   29.026193   18.462624
  27 H     1.0000    0     1.008   18.764981   26.985289   18.254754
  28 O     8.0000    0    15.999   20.409042   29.441933   24.131803
  29 H     1.0000    0     1.008   19.690946   28.534865   22.657816
  30 H     1.0000    0     1.008   21.372803   30.556872   23.035762
  31 O     8.0000    0    15.999   10.979309   20.049994   30.065543
  32 H     1.0000    0     1.008   12.604473   20.201172   29.252961
  33 H     1.0000    0     1.008   10.695850   18.387035   30.575769
  34 O     8.0000    0    15.999   16.894152   31.463940   14.853247
  35 H     1.0000    0     1.008   16.308337   31.747399   13.152494
  36 H     1.0000    0     1.008   18.538213   32.295420   14.872145
  37 O     8.0000    0    15.999   14.702069   25.983734   13.322569
  38 H     1.0000    0     1.008   15.174501   25.700275   11.584021
  39 H     1.0000    0     1.008   16.308337   26.153810   14.135151
  40 O     8.0000    0    15.999   28.326995   21.183830   17.593350
  41 H     1.0000    0     1.008   27.571104   20.768090   19.199618
  42 H     1.0000    0     1.008   28.138022   22.997967   17.234302
  43 O     8.0000    0    15.999   24.849899   20.616912   11.886377
  44 H     1.0000    0     1.008   23.092453   20.409042   11.754097
  45 H     1.0000    0     1.008   25.360125   20.201172   13.568234
  46 O     8.0000    0    15.999    8.428179   12.944624   22.431049
  47 H     1.0000    0     1.008    6.689631   12.661165   21.712953
  48 H     1.0000    0     1.008    7.880158   13.001316   24.169597
  49 O     8.0000    0    15.999   15.760316    9.013994   25.964837
  50 H     1.0000    0     1.008   15.873700    7.369932   25.227844
  51 H     1.0000    0     1.008   15.344576    9.902165   24.415262
  52 O     8.0000    0    15.999   13.171391   20.862577   20.446837
  53 H     1.0000    0     1.008   13.568234   20.957063   18.708289
  54 H     1.0000    0     1.008   11.716302   19.653152   20.579118
  55 O     8.0000    0    15.999   20.786987   13.341467   23.678268
  56 H     1.0000    0     1.008   20.125583   14.872145   24.453056
  57 H     1.0000    0     1.008   19.256309   12.774549   22.884583
  58 O     8.0000    0    15.999   15.741419   31.841885   27.684488
  59 H     1.0000    0     1.008   17.120919   31.879680   26.626241
  60 H     1.0000    0     1.008   16.516206   31.652913   29.385241
  61 O     8.0000    0    15.999   27.382132   28.232508   22.695611
  62 H     1.0000    0     1.008   26.645138   26.607344   22.922378
  63 H     1.0000    0     1.008   29.120680   27.722282   22.601125
  64 O     8.0000    0    15.999   19.558665   25.341227   15.382371
  65 H     1.0000    0     1.008   21.013755   26.493960   15.457960
  66 H     1.0000    0     1.008   19.842124   23.829447   14.305227
  67 O     8.0000    0    15.999   28.326995   24.301878   27.287645
  68 H     1.0000    0     1.008   28.213611   22.468844   26.947495
  69 H     1.0000    0     1.008   26.758522   24.660926   28.194714
  70 O     8.0000    0    15.999   24.037316   32.182036   21.051549
  71 H     1.0000    0     1.008   25.530200   31.067098   21.164933
  72 H     1.0000    0     1.008   24.509748   33.844995   21.523981
  73 O     8.0000    0    15.999   21.051549   20.087789   29.952159
  74 H     1.0000    0     1.008   22.336563   21.259419   30.462385
  75 H     1.0000    0     1.008   19.766535   21.221624   29.366344
  76 O     8.0000    0    15.999   15.325679   12.661165   16.100467
  77 H     1.0000    0     1.008   13.606028   13.246980   15.590241
  78 H     1.0000    0     1.008   15.798110   13.983973   17.309891
  79 O     8.0000    0    15.999   15.646932    8.787227   19.936611
  80 H     1.0000    0     1.008   13.889487    8.428179   20.257864
  81 H     1.0000    0     1.008   15.798110    9.221864   18.235857
  82 O     8.0000    0    15.999   28.686043   27.174262   17.309891
  83 H     1.0000    0     1.008   28.893913   28.969502   17.102022
  84 H     1.0000    0     1.008   28.402584   27.004186   19.199618
  85 O     8.0000    0    15.999   24.982179   13.322569   14.456405
  86 H     1.0000    0     1.008   25.360125   13.511542   12.698960
  87 H     1.0000    0     1.008   24.358570   11.640713   14.513097
  88 O     8.0000    0    15.999   19.426385   27.060878   28.648248
  89 H     1.0000    0     1.008   17.876809   27.117570   29.687598
  90 H     1.0000    0     1.008   19.464179   27.911255   27.023084
  91 O     8.0000    0    15.999   16.402823   10.960412   10.450186
  92 H     1.0000    0     1.008   15.401268   10.223418   11.867480
  93 H     1.0000    0     1.008   15.552446   12.585576   10.393494
  94 O     8.0000    0    15.999   22.846789   17.857912   25.813659
  95 H     1.0000    0     1.008   23.243631   16.251645   26.626241
  96 H     1.0000    0     1.008   22.053104   18.764981   27.249851
  97 O     8.0000    0    15.999   16.383926   16.459515   25.945940
  98 H     1.0000    0     1.008   15.703624   15.684727   27.363234
  99 H     1.0000    0     1.008   15.760316   15.363473   24.604234
 100 O     8.0000    0    15.999   19.672049   20.352350   11.319460
 101 H     1.0000    0     1.008   18.783878   18.746083   11.659610
 102 H     1.0000    0     1.008   18.632700   21.448392   10.280110
 103 O     8.0000    0    15.999   15.703624   24.207392   23.243631
 104 H     1.0000    0     1.008   16.005980   25.454611   22.034207
 105 H     1.0000    0     1.008   14.607583   23.016864   22.468844
 106 O     8.0000    0    15.999   27.741180   19.615357   26.002632
 107 H     1.0000    0     1.008   28.931707   18.708289   25.019974
 108 H     1.0000    0     1.008   26.078221   18.821672   25.700275
 109 Q     0.6645    0     0.000   12.283220   40.270064   17.990193
 110 Q     0.6645    0     0.000   11.565124   37.435475   18.292549
 111 Q    -1.3290    0     0.000   11.243870   38.985050   18.046885
 112 Q     0.6645    0     0.000   18.897261   38.077982   28.780529
 113 Q     0.6645    0     0.000   16.383926   38.115776   29.914365
 114 Q    -1.3290    0     0.000   17.820117   37.662242   29.838776
 115 Q     0.6645    0     0.000   22.620022   25.152255   29.744289
 116 Q     0.6645    0     0.000   24.604234   25.341227   31.804091
 117 Q    -1.3290    0     0.000   23.886138   24.642029   30.594666
 118 Q     0.6645    0     0.000   40.288961   23.338118   16.837460
 119 Q     0.6645    0     0.000   42.121996   22.979070   14.664275
 120 Q    -1.3290    0     0.000   41.025954   22.563330   15.703624
 121 Q     0.6645    0     0.000    9.297453   29.328550   11.111590
 122 Q     0.6645    0     0.000   11.338357   30.537974    9.354144
 123 Q    -1.3290    0     0.000    9.939959   29.819878    9.694295
 124 Q     0.6645    0     0.000   12.339912    8.465973   27.287645
 125 Q     0.6645    0     0.000   10.695850    7.521110   29.290755
 126 Q    -1.3290    0     0.000   10.941514    8.239206   27.967947
 127 Q     0.6645    0     0.000   18.405933   25.511303   39.986605
 128 Q     0.6645    0     0.000   21.146035   24.471953   40.818084
 129 Q    -1.3290    0     0.000   19.766535   24.528645   39.948810
 130 Q     0.6645    0     0.000   26.399474   15.004426    8.182514
 131 Q     0.6645    0     0.000   26.418371   11.999761    8.938405
 132 Q    -1.3290    0     0.000   26.682933   13.643823    9.070685
 133 Q     0.6645    0     0.000   15.476857    0.359048   16.024878
 134 Q     0.6645    0     0.000   14.494199    2.929076   17.461069
 135 Q    -1.3290    0     0.000   15.212295    1.473986   17.253200
 136 Q     0.6645    0     0.000   17.574453   25.246741    7.634494
 137 Q     0.6645    0     0.000   15.155604   23.640474    7.180959
 138 Q    -1.3290    0     0.000   16.327234   24.301878    8.069131
 139 Q     0.6645    0     0.000   25.775864   31.369454   28.440378
 140 Q     0.6645    0     0.000   27.514413   29.857673   26.890803
 141 Q    -1.3290    0     0.000   27.079775   30.481283   28.213611
 142 Q     0.6645    0     0.000   10.280110   31.445043   23.111351
 143 Q     0.6645    0     0.000    8.541562   33.296974   21.675159
 144 Q    -1.3290    0     0.000    9.902165   32.824543   22.412152
 145 Q     0.6645    0     0.000    8.484870   23.980625    8.295898
 146 Q     0.6645    0     0.000   10.620261   25.662481    8.976199
 147 Q    -1.3290    0     0.000    9.656501   24.453056    9.165172
 148 Q     0.6645    0     0.000   11.584021   34.581988   29.612009
 149 Q     0.6645    0     0.000   10.242316   32.276522   30.556872
 150 Q    -1.3290    0     0.000   10.828131   33.674920   30.708050
 151 Q     0.6645    0     0.000   13.020213   20.220070   13.738309
 152 Q     0.6645    0     0.000   14.380816   22.582227   14.210741
 153 Q    -1.3290    0     0.000   13.681617   21.335008   14.664275
 154 Q     0.6645    0     0.000   16.213850   20.238967    1.530678
 155 Q     0.6645    0     0.000   18.141371   21.523981   -0.226767
 156 Q    -1.3290    0     0.000   17.328789   20.295659    0.415740
 157 Q     0.6645    0     0.000   37.907906   29.101782   19.804330
 158 Q     0.6645    0     0.000   36.944146   30.783639   17.895706
 159 Q    -1.3290    0     0.000   37.340988   30.443488   19.313001
 160 Q     0.6645    0     0.000   26.569549   23.564885   10.412391
 161 Q     0.6645    0     0.000   26.380577   26.418371    9.599809
 162 Q    -1.3290    0     0.000   26.909700   24.887693    9.562014
 163 Q     0.6645    0     0.000   36.774071   27.457721   13.058008
 164 Q     0.6645    0     0.000   33.958379   27.911255   12.906829
 165 Q    -1.3290    0     0.000   35.413468   28.119125   13.492645
 166 Q     0.6645    0     0.000   25.435714   30.915920   11.357254
 167 Q     0.6645    0     0.000   23.791652   28.723837   12.642268
 168 Q    -1.3290    0     0.000   24.264084   29.706495   11.470638
 169 Q     0.6645    0     0.000   27.722282   36.282742   15.420165
 170 Q     0.6645    0     0.000   24.679823   35.961488   15.457960
 171 Q    -1.3290    0     0.000   26.172707   36.490612   15.930391
 172 Q     0.6645    0     0.000   19.955508    6.368377   12.415501
 173 Q     0.6645    0     0.000   19.180720    4.856596   14.664275
 174 Q    -1.3290    0     0.000   19.029542    6.084918   13.662720
 175 Q     0.6645    0     0.000   31.123789   35.035523   23.678268
 176 Q     0.6645    0     0.000   32.635570   32.522187   23.545988
 177 Q    -1.3290    0     0.000   32.030858   33.939481   22.997967
 178 Q     0.6645    0     0.000   32.730057   15.401268   24.755412
 179 Q     0.6645    0     0.000   32.087550   13.152494   26.323885
 180 Q    -1.3290    0     0.000   32.748954   14.607583   26.097118
 181 Q     0.6645    0     0.000   22.544433   41.007057   28.119125
 182 Q     0.6645    0     0.000   23.357015   38.380338   26.890803
 183 Q    -1.3290    0     0.000   22.506638   39.759838   27.117570
 184 Q     0.6645    0     0.000   13.284775   26.796317   24.944385
 185 Q     0.6645    0     0.000   13.454850   29.101782   26.626241
 186 Q    -1.3290    0     0.000   12.755651   28.081330   25.624686
 187 Q     0.6645    0     0.000   22.657816    5.272336   29.668700
 188 Q     0.6645    0     0.000   21.353905    7.955747   29.555317
 189 Q    -1.3290    0     0.000   22.563330    6.859706   29.271858
 190 Q     0.6645    0     0.000   21.901926   14.456405    1.322808
 191 Q     0.6645    0     0.000   24.547542   15.287884    0.925966
 192 Q    -1.3290    0     0.000   22.997967   15.382371    0.755890
 193 Q     0.6645    0     0.000    4.440856    3.420404   19.067337
 194 Q     0.6645    0     0.000    4.951082    5.026672   16.667385
 195 Q    -1.3290    0     0.000    4.554240    3.684966   17.498864
 196 Q     0.6645    0     0.000   29.763187   10.336802   27.873460
 197 Q     0.6645    0     0.000   28.912810   11.489535   25.379022
 198 Q    -1.3290    0     0.000   29.838776   10.676953   26.342782
 199 Q     0.6645    0     0.000   14.872145   14.758761   31.841885
 200 Q     0.6645    0     0.000   12.680062   13.246980   30.613563
 201 Q    -1.3290    0     0.000   13.681617   14.494199   30.802536
 202 Q     0.6645    0     0.000   30.500180   24.112905   32.559981
 203 Q     0.6645    0     0.000   30.632461   23.111351   35.092214
 204 Q    -1.3290    0     0.000   30.878125   23.016864   33.599331
 205 Q     0.6645    0     0.000   40.931468   12.887932   22.544433
 206 Q     0.6645    0     0.000   41.573975   13.001316   19.804330
 207 Q    -1.3290    0     0.000   40.572420   12.717857   20.994857
 208 Q     0.6645    0     0.000    5.877048   30.632461   25.530200
 209 Q     0.6645    0     0.000    8.182514   29.026193   26.626241
 210 Q    -1.3290    0     0.000    6.859706   29.347447   25.662481
 211 Q     0.6645    0     0.000   29.649803   12.075350   17.895706
 212 Q     0.6645    0     0.000   27.382132   13.530439   17.120919
 213 Q    -1.3290    0     0.000   28.534865   13.209186   18.065782
 214 Q     0.6645    0     0.000   12.094247   30.367899   16.251645
 215 Q     0.6645    0     0.000   12.377706   27.646693   15.080015
 216 Q    -1.3290    0     0.000   11.584021   28.931707   15.798110
 217 Q     0.6645    0     0.000    5.045569   23.224734   29.612009
 218 Q     0.6645    0     0.000    2.796795   24.339673   31.256070
 219 Q    -1.3290    0     0.000    4.327473   24.207392   30.689152
 220 Q     0.6645    0     0.000    0.188973   20.201172   21.675159
 221 Q     0.6645    0     0.000    2.381055   22.128693   21.108241
 222 Q    -1.3290    0     0.000    0.925966   21.656261   21.580672
 223 Q     0.6645    0     0.000   12.812343   19.804330    4.365267
 224 Q     0.6645    0     0.000   12.264323   22.393255    3.552685
 225 Q    -1.3290    0     0.000   13.133597   21.335008    4.289678
[...]
 326   Q   :    0.057690378    0.263711778   -0.161829550
 327   Q   :    0.129821505    0.005609521    0.274896734
 328   Q   :   -0.193452575   -0.274835835   -0.120955551
 329   Q   :    0.135868167   -0.269026411   -0.008953170
 330   Q   :   -0.083775089    0.116926837    0.272574039
 331   Q   :   -0.057792012    0.155019214   -0.262488766
 332   Q   :    0.245025625    0.053488966    0.116761567
 333   Q   :   -0.063769780   -0.061467389   -0.257911892
 334   Q   :   -0.168683031   -0.000181956    0.131128326
 335   Q   :    0.065627799    0.126334024   -0.201729019
 336   Q   :   -0.215988263   -0.177673859    0.037700719
 337   Q   :    0.139550163    0.056163590    0.167826948
 338   Q   :   -0.154078543   -0.190057958   -0.112175807
 339   Q   :    0.005615870    0.261881720   -0.052511169
 340   Q   :    0.148128019   -0.068514454    0.160604845
 341   Q   :   -0.004403449   -0.230984032    0.107376147
 342   Q   :   -0.169132270    0.195499815    0.061371183
 343   Q   :    0.164134426    0.026564652   -0.164619606
 344   Q   :    0.030788531   -0.196002166   -0.231350502
 345   Q   :    0.056438807   -0.092267393    0.288018194
 346   Q   :   -0.071919348    0.284234926   -0.051423657
 347   Q   :   -0.011995221   -0.268196591    0.105257799
 348   Q   :    0.194079837    0.140138733   -0.073915554
 349   Q   :   -0.190730026    0.129896592   -0.041490978
 350   Q   :   -0.132893607    0.269841000    0.022094025
 351   Q   :   -0.141643257   -0.239183013   -0.068172356
 352   Q   :    0.271890868   -0.027490788    0.049746404
 353   Q   :   -0.042975146   -0.042302217   -0.263956222
 354   Q   :    0.174651926    0.207414758    0.122236700
 355   Q   :   -0.131389003   -0.164215923    0.154178133
 356   Q   :    0.059524683    0.261419167   -0.115953024
 357   Q   :   -0.105564876   -0.196533032   -0.163949648
 358   Q   :    0.043618910   -0.062280004    0.273009103
 359   Q   :    0.289819659    0.016747161    0.038852873
 360   Q   :   -0.141815660    0.047900863   -0.235553167
 361   Q   :   -0.149954177   -0.066722690    0.199848785
 362   Q   :    0.113297048   -0.231890814    0.099229884
 363   Q   :   -0.311317683    0.047307523    0.007135184
 364   Q   :    0.195091176    0.179503732   -0.100162997
 365   Q   :    0.215262441   -0.156789066   -0.077389858
 366   Q   :   -0.296309380   -0.050264505   -0.046882331
 367   Q   :    0.081023056    0.202066547    0.128936224
 368   Q   :   -0.018335185   -0.170407513   -0.186476374
 369   Q   :   -0.047169785   -0.011589164    0.289760922
 370   Q   :    0.062486007    0.185929082   -0.096435324
 371   Q   :    0.170570802   -0.133767518   -0.171823948
 372   Q   :   -0.290579612   -0.020668603    0.003816884
 373   Q   :    0.117572361    0.154766094    0.167266860
 374   Q   :    0.220050351   -0.119550363   -0.103108887
 375   Q   :   -0.203053643   -0.128746163    0.142283761
 376   Q   :   -0.010883199    0.248023245   -0.050732073
 377   Q   :   -0.100513282   -0.230287896    0.133926676
 378   Q   :   -0.141551785    0.156442527   -0.177477999
 379   Q   :    0.228845335    0.070327124    0.044516628
 380   Q   :   -0.017949147    0.223931756    0.191583408
 381   Q   :    0.194551305   -0.208550368    0.028921642
 382   Q   :   -0.181703723   -0.010174876   -0.219966425
 383   Q   :    0.226855176   -0.158412263   -0.081413852
 384   Q   :   -0.068767977    0.071993631    0.276492776
 385   Q   :   -0.148229869    0.086700747   -0.194203043
 386   Q   :    0.059694681    0.163811962    0.181515072
 387   Q   :   -0.252204785   -0.125141551   -0.051011559
 388   Q   :    0.199807837   -0.043351133   -0.126525427
 389   Q   :   -0.093383119   -0.126644347   -0.193584987
 390   Q   :   -0.045129345   -0.021686102    0.251101855
 391   Q   :    0.131189406    0.144865057   -0.053099328
 392   Q   :   -0.219255027   -0.002425104   -0.138613447
 393   Q   :    0.136292850   -0.238669559    0.111344424
 394   Q   :    0.086528717    0.232576889    0.029605970
 395   Q   :    0.236131731   -0.156296263   -0.106598601
 396   Q   :   -0.000624810    0.302788371    0.025705669
 397   Q   :   -0.232397864   -0.148008804    0.083328569
 398   Q   :    0.228197001   -0.068271464   -0.163808002
 399   Q   :   -0.273204256   -0.135646883   -0.010901194
 400   Q   :    0.040178019    0.201553493    0.164213949
 401   Q   :    0.235427507    0.103236001   -0.102985375
 402   Q   :   -0.060094984   -0.306193931   -0.027794559
 403   Q   :   -0.181645386    0.191003436    0.129268313
 404   Q   :   -0.089821132    0.091537900   -0.212563883
 405   Q   :    0.043401346    0.125329394    0.257792257
 406   Q   :    0.050265618   -0.219767317   -0.030306380
 407   Q   :   -0.222951759    0.113320044   -0.084855997
 408   Q   :    0.037345902   -0.103377564    0.278866264
 409   Q   :    0.189386547   -0.008534387   -0.181111843
 410   Q   :   -0.038885225    0.247137387   -0.022924305
 411   Q   :   -0.113401004   -0.195806029   -0.103620313
 412   Q   :    0.141431292   -0.049883499    0.123469108
 413   Q   :   -0.162566687    0.194830204   -0.073641587
 414   Q   :    0.270314352   -0.001226032    0.062174148
 415   Q   :   -0.100134992   -0.193287303    0.006804457
 416   Q   :   -0.154696755   -0.012469424   -0.254436096
 417   Q   :   -0.074016660    0.121582267    0.252569662
 418   Q   :    0.230724950   -0.111640846    0.002580760
 419   Q   :   -0.055609323   -0.010236354    0.278635736
 420   Q   :    0.272536447   -0.057088315   -0.105389519
 421   Q   :   -0.210502825    0.074584666   -0.176459296
 422   Q   :    0.280576947   -0.038784340   -0.025957306
 423   Q   :   -0.193037324   -0.164751509    0.155027838
 424   Q   :   -0.085166172    0.200562000   -0.135344542
 425   Q   :   -0.098220489   -0.209976374   -0.199163164
 426   Q   :   -0.044845406   -0.011572674    0.274625518
 427   Q   :    0.138660065    0.217507668   -0.077713136
 428   Q   :    0.091303510    0.225825131   -0.172111972
 429   Q   :   -0.018672537    0.007552402    0.294347203
 430   Q   :   -0.071620892   -0.227700052   -0.121395081
 431   Q   :    0.161316297    0.103953859    0.263330670
 432   Q   :    0.135218947   -0.143479973   -0.197132672
 433   Q   :   -0.292722902    0.050825703   -0.064065903
 434   Q   :   -0.012723993   -0.202107887    0.187841812
 435   Q   :   -0.180428320    0.098329474   -0.156081048
 436   Q   :    0.198392173    0.106604954   -0.027766421
 437   Q   :    0.234396115   -0.100613001    0.203321886
 438   Q   :   -0.200561551    0.189609140    0.140612412
 439   Q   :   -0.034395957   -0.085474615   -0.341137257
 440   Q   :   -0.227566593   -0.144863251    0.097827970
 441   Q   :    0.180154271   -0.109866073   -0.210949154
 442   Q   :    0.045685949    0.244080141    0.115554567
 443   Q   :    0.117096699    0.241450763   -0.050800520
 444   Q   :   -0.095486729   -0.108559740    0.262400390
 445   Q   :   -0.022633224   -0.132738036   -0.203765261
 446   Q   :   -0.210619124   -0.167763742    0.112707503
 447   Q   :    0.144508846    0.188152236    0.099183882
 448   Q   :    0.064846453   -0.032445326   -0.210837391
 449   Q   :    0.133100168   -0.033540812    0.194913490
 450   Q   :    0.011076004    0.226331408   -0.182621874
 451   Q   :   -0.143498412   -0.181707726   -0.022673980
 452   Q   :    0.149955127    0.240312715   -0.045381279
 453   Q   :   -0.138037626   -0.076271248    0.242879115
 454   Q   :    0.001056424   -0.162489928   -0.207588944
 455   Q   :    0.162856102   -0.170089911    0.171904605
 456   Q   :    0.128196444    0.252161333   -0.112667716
 457   Q   :   -0.289871133   -0.075099183   -0.067701351
 458   Q   :    0.063709456   -0.210537086    0.222047908
 459   Q   :   -0.179525575    0.204514093    0.041431571
 460   Q   :    0.108630968    0.006707062   -0.256872480
 461   Q   :    0.242885934   -0.008828115    0.196302106
 462   Q   :   -0.015954942    0.247434405   -0.197572747
 463   Q   :   -0.224254879   -0.227049373    0.002843195
 464   Q   :   -0.233451410    0.129950925   -0.060897929
 465   Q   :    0.222316308    0.090491542    0.160534485
 466   Q   :    0.015211099   -0.213419127   -0.093530885
 467   Q   :   -0.058923769    0.147733301   -0.270403838
 468   Q   :    0.137197480    0.127491240    0.214403308
 469   Q   :   -0.094575286   -0.286008114    0.052313227
 470   Q   :    0.045235455   -0.248654431    0.156082186
 471   Q   :   -0.058371332    0.259808367    0.131913428
 472   Q   :    0.019823538   -0.006557866   -0.281130682
 473   Q   :    0.031136431    0.037157709    0.266087523
 474   Q   :    0.156738369   -0.132369143   -0.190596283
 475   Q   :   -0.187615895    0.083908282   -0.085691543
 476   Q   :    0.220203630   -0.008044494    0.140348055
 477   Q   :   -0.209279453   -0.155644772    0.002570514
 478   Q   :   -0.000678405    0.163563602   -0.143886177
 479   Q   :    0.128460307   -0.001127238   -0.229406720
 480   Q   :   -0.251284677   -0.030954690    0.045824617
 481   Q   :    0.119639344    0.037186320    0.185850368
 482   Q   :   -0.192157002   -0.169580091    0.074087236
 483   Q   :    0.295772998   -0.039222944   -0.053325080
 484   Q   :   -0.091249644    0.223703078   -0.030416961
 485   Q   :    0.298001168   -0.065370664   -0.005889379
 486   Q   :   -0.118681480    0.161764839    0.191710722
 487   Q   :   -0.178463622   -0.108770683   -0.181095060
 488   Q   :   -0.127991063    0.030942858   -0.301645024
 489   Q   :    0.268261626    0.109852478    0.031719312
 490   Q   :   -0.141342604   -0.145717284    0.262597083
 491   Q   :   -0.051647543   -0.229549914   -0.140246767
 492   Q   :    0.083794861    0.229221509   -0.114786201
 493   Q   :   -0.047591217    0.000661476    0.258858755
 494   Q   :   -0.122417725    0.256694093    0.118845739
 495   Q   :    0.266316260   -0.104230946    0.044704564
 496   Q   :   -0.140364814   -0.141534740   -0.153381444
 497   Q   :   -0.195057582    0.081995497    0.175082525
 498   Q   :   -0.000783479   -0.266714202   -0.128403122
 499   Q   :    0.189050408    0.186326300   -0.049537980
 500   Q   :   -0.211990891   -0.146417893    0.120180846
 501   Q   :    0.309165941   -0.026664732    0.090853563
 502   Q   :   -0.096872869    0.181553969   -0.208206469
 503   Q   :   -0.200806769   -0.160754322    0.066422459
 504   Q   :    0.126788989    0.188924172    0.187076043
 505   Q   :    0.074344944   -0.019313650   -0.255248064
 506   Q   :    0.018811412    0.227334246   -0.108217450
 507   Q   :   -0.243514180   -0.131836806    0.064978626
 508   Q   :    0.220656510   -0.104627211    0.039589026
 509   Q   :   -0.131474545    0.215922939    0.028180655
 510   Q   :    0.107759614   -0.151323361    0.197329682
 511   Q   :    0.025597441   -0.068257392   -0.216181867
 512   Q   :    0.264938594   -0.020156971   -0.000804169
 513   Q   :   -0.155391470    0.199074539    0.159186104
 514   Q   :   -0.118651187   -0.181570865   -0.167105566
 515   Q   :   -0.273843556   -0.019892205    0.171455258
 516   Q   :    0.238023321    0.112513286    0.109642280
 517   Q   :    0.025782409   -0.087411538   -0.282175260
 518   Q   :   -0.093660429    0.309967468   -0.105507210
 519   Q   :    0.117554531   -0.011136484    0.264684187
 520   Q   :   -0.023448016   -0.298940357   -0.161333125
 521   Q   :    0.013997162    0.091831201   -0.231408898
 522   Q   :   -0.158110334   -0.257771714    0.066241918
 523   Q   :    0.154329441    0.165272074    0.175506865
 524   Q   :    0.002300932    0.269133697    0.043247085
 525   Q   :   -0.073554070   -0.217885222    0.205630440
 526   Q   :    0.079361771   -0.057177575   -0.245013740
 527   Q   :    0.233659888    0.041838813    0.130121659
 528   Q   :   -0.130730336    0.094724264   -0.207809132
 529   Q   :   -0.099937088   -0.125440142    0.079869602
 530   Q   :   -0.101075346   -0.099380586    0.222245352
 531   Q   :    0.081529769    0.238208049   -0.093332161
 532   Q   :    0.025433066   -0.136080084   -0.132398397
 533   Q   :    0.317550396    0.039084803    0.007237942
 534   Q   :   -0.142596290   -0.216688319   -0.136616683
 535   Q   :   -0.175977903    0.178429443    0.136157057
 536   Q   :   -0.210132233    0.152405915   -0.130537900
 537   Q   :    0.290231418    0.042960819   -0.138395839
 538   Q   :   -0.074574317   -0.196587920    0.274579813
 539   Q   :   -0.200915385    0.096851431    0.133012709
 540   Q   :    0.283921344    0.039700562    0.036728961
 541   Q   :   -0.075461871   -0.146379970   -0.172934621
 542   Q   :   -0.230567470   -0.154194422    0.097617773
 543   Q   :    0.267837541   -0.070140674    0.055938150
 544   Q   :   -0.038549258    0.219369434   -0.154169701
 545   Q   :   -0.055863039   -0.240435138   -0.138707225
 546   Q   :    0.218895695    0.103145210    0.114552015
 547   Q   :   -0.166704336    0.135829266    0.025948237
 548   Q   :   -0.279615631   -0.059538690   -0.025311856
 549   Q   :    0.191914444   -0.105585616    0.157635050
 550   Q   :    0.083585909    0.159162687   -0.125555592
 551   Q   :   -0.237704923   -0.182210684    0.008055364
 552   Q   :   -0.011397278    0.280944376   -0.012092541
 553   Q   :    0.249175745   -0.103454707    0.006093324
 554   Q   :    0.131546627    0.104101737   -0.188462233
 555   Q   :    0.063094390   -0.034133237    0.259813976
 556   Q   :   -0.194009181   -0.059844499   -0.074359174
 557   Q   :    0.247561584   -0.058249797   -0.167069097
 558   Q   :   -0.236473971    0.045362217   -0.126182381
 559   Q   :   -0.006330544    0.010098943    0.291318038
 560   Q   :    0.225174378    0.064573338   -0.165219119
 561   Q   :   -0.236219093   -0.118481434   -0.113591078
 562   Q   :    0.002187321    0.058097502    0.260786353
 563   Q   :    0.178442384    0.086339649    0.226945450
 564   Q   :   -0.257441488    0.127679757   -0.033644622
 565   Q   :    0.079852698   -0.209262319   -0.192305661
 566   Q   :    0.314519557   -0.077527874   -0.028931287
 567   Q   :   -0.095365811    0.084903256    0.257261863
 568   Q   :   -0.207935785   -0.014419643   -0.230524674
 569   Q   :   -0.001940019    0.180352814   -0.201022074
 570   Q   :   -0.106310029    0.025624013    0.232994133
 571   Q   :    0.121093051   -0.209148147   -0.026415121
 572   Q   :    0.170310814    0.139996591   -0.186781783
 573   Q   :   -0.126115018   -0.211720876   -0.016866987
 574   Q   :   -0.038730564    0.066855747    0.196918747
 575   Q   :   -0.016146453   -0.150956038    0.271463055
 576   Q   :    0.041652900   -0.115452848   -0.267377144
 577   Q   :   -0.026542391    0.266104705   -0.010498395
 578   Q   :    0.098969606   -0.220360449   -0.181491360
 579   Q   :    0.082539246    0.053015930    0.250061661
 580   Q   :   -0.182694327    0.155578475   -0.066058217
 581   Q   :   -0.215073735    0.163830584   -0.107882478
 582   Q   :    0.120327103   -0.227732399   -0.110749604
 583   Q   :    0.103246559    0.060805804    0.222294962
 584   Q   :   -0.036716619    0.073775089   -0.245460318
 585   Q   :    0.126437114   -0.210907377    0.093851603
 586   Q   :   -0.079687566    0.129438109    0.149409644
 587   Q   :    0.206440581    0.211786788    0.020578328
 588   Q   :    0.022020491   -0.241649685    0.141620133
 589   Q   :   -0.230252775    0.022389283   -0.161165700
 590   Q   :   -0.274366533    0.141783687    0.007596186
 591   Q   :    0.052358153   -0.267558487   -0.051284200
 592   Q   :    0.204983300    0.127011619    0.051265484
 593   Q   :    0.218613252   -0.156034580   -0.118317588
 594   Q   :   -0.248510566   -0.063743041   -0.001322552
 595   Q   :    0.032810834    0.208585738    0.119981232
 596   Q   :    0.187685592   -0.187796261    0.035836375
 597   Q   :   -0.221068545   -0.007720438   -0.199926615
 598   Q   :    0.031051022    0.202878175    0.157089086
 599   Q   :    0.133746815   -0.125126173    0.173600698
 600   Q   :    0.048760875    0.246697748   -0.124770110
 601   Q   :   -0.195373343   -0.117422460   -0.050815962
 602   Q   :    0.051461779    0.041496631   -0.234267073
 603   Q   :    0.001403667    0.122163533    0.209018149
 604   Q   :   -0.059216487   -0.153740168    0.024548151
 605   Q   :   -0.190631284   -0.166779165   -0.115785618
 606   Q   :   -0.048637805    0.205006144    0.176773926
 607   Q   :    0.235976671   -0.036776847   -0.067886356
 608   Q   :   -0.070767793   -0.031157789   -0.276827109
 609   Q   :    0.229865867    0.161278652    0.095228552
 610   Q   :   -0.154223072   -0.125498828    0.180249715
 611   Q   :    0.050210960   -0.119601956   -0.257733329
 612   Q   :   -0.178777670    0.203708010    0.029049641
 613   Q   :    0.136374544   -0.093497917    0.232705146
 614   Q   :    0.061028557   -0.115515844   -0.258199502
 615   Q   :   -0.039133291   -0.147099449    0.251915681
 616   Q   :   -0.020609856    0.260519321    0.002888479

Difference to translation invariance:
           :   -0.0001306143    0.0002477374    0.0005917909

Difference to rotation invariance:
           :    0.0047755042   -0.0172273463    0.0126218123

Norm of the cartesian gradient     ...    6.2750820797
RMS gradient                       ...    0.1459716199
MAX gradient                       ...    0.3411372569

-------
TIMINGS
-------

Total SCF gradient time            ...      222.961 sec

One electron gradient       ....      24.537 sec  ( 11.0%)
RI-J Coulomb gradient       ....      11.090 sec  (  5.0%)
COSX gradient               ....     146.349 sec  ( 65.6%)
XC gradient                 ....      16.037 sec  (  7.2%)

Maximum memory used throughout the entire SCFGRAD-calculation: 841.2 MB

                            ***************************************
                            *     ORCA property calculations      *
                            ***************************************

                                    ---------------------
                                    Active property flags
                                    ---------------------
   (+) Dipole Moment


------------------------------------------------------------------------------
                       ORCA ELECTRIC PROPERTIES CALCULATION
------------------------------------------------------------------------------

Dipole Moment Calculation                       ... on
Quadrupole Moment Calculation                   ... off
Polarizability Calculation                      ... off
GBWName                                         ... final008.orca.gbw
Electron density                                ... final008.orca.scfp
The origin for moment calculation is the CENTER OF MASS  = (19.598014, 20.687373 20.958982)

-------------
DIPOLE MOMENT
-------------
                                X             Y             Z
Electronic contribution:     -0.82143      -0.78884       0.17041
Nuclear contribution   :     -1.90495      -3.37244       1.04701
                        -----------------------------------------
Total Dipole Moment    :     -2.72637      -4.16128       1.21742
                        -----------------------------------------
Magnitude (a.u.)       :      5.12167
Magnitude (Debye)      :     13.01825



--------------------
Rotational spectrum 
--------------------
 
Rotational constants in cm-1:     0.001873     0.001406     0.001216 
Rotational constants in MHz :    56.142519    42.156829    36.453537 

 Dipole components along the rotational axes: 
x,y,z [a.u.] :    -4.698002     2.039674     0.000595 
x,y,z [Debye]:   -11.941373     5.184441     0.001513 

 

Timings for individual modules:

Sum of individual times         ...      919.919 sec (=  15.332 min)
GTO integral calculation        ...       13.816 sec (=   0.230 min)   1.5 %
SCF iterations                  ...      678.869 sec (=  11.314 min)  73.8 %
SCF Gradient evaluation         ...      227.234 sec (=   3.787 min)  24.7 %
                             ****ORCA TERMINATED NORMALLY****
TOTAL RUN TIME: 0 days 0 hours 15 minutes 28 seconds 369 msec
