
                                 *****************
                                 * O   R   C   A *
                                 *****************

                                            #,                                       
                                            ###                                      
                                            ####                                     
                                            #####                                    
                                            ######                                   
                                           ########,                                 
                                     ,,################,,,,,                         
                               ,,#################################,,                 
                          ,,##########################################,,             
                       ,#########################################, ''#####,          
                    ,#############################################,,   '####,        
                  ,##################################################,,,,####,       
                ,###########''''           ''''###############################       
              ,#####''   ,,,,##########,,,,          '''####'''          '####       
            ,##' ,,,,###########################,,,                        '##       
           ' ,,###''''                  '''############,,,                           
         ,,##''                                '''############,,,,        ,,,,,,###''
      ,#''                                            '''#######################'''  
     '                                                          ''''####''''         
             ,#######,   #######,   ,#######,      ##                                
            ,#'     '#,  ##    ##  ,#'     '#,    #''#        ######   ,####,        
            ##       ##  ##   ,#'  ##            #'  '#       #        #'  '#        
            ##       ##  #######   ##           ,######,      #####,   #    #        
            '#,     ,#'  ##    ##  '#,     ,#' ,#      #,         ##   #,  ,#        
             '#######'   ##     ##  '#######'  #'      '#     #####' # '####'        



                  #######################################################
                  #                        -***-                        #
                  #          Department of theory and spectroscopy      #
                  #    Directorship and core code : Frank Neese         #
                  #        Max Planck Institute fuer Kohlenforschung    #
                  #                Kaiser Wilhelm Platz 1               #
                  #                 D-45470 Muelheim/Ruhr               #
                  #                      Germany                        #
                  #                                                     #
                  #                  All rights reserved                #
                  #                        -***-                        #
                  #######################################################


                         Program Version 5.0.3 -  RELEASE  -


 With contributions from (in alphabetic order):
   Daniel Aravena         : Magnetic Suceptibility
   Michael Atanasov       : Ab Initio Ligand Field Theory (pilot matlab implementation)
   Alexander A. Auer      : GIAO ZORA, VPT2 properties, NMR spectrum
   Ute Becker             : Parallelization
   Giovanni Bistoni       : ED, misc. LED, open-shell LED, HFLD
   Martin Brehm           : Molecular dynamics
   Dmytro Bykov           : SCF Hessian
   Vijay G. Chilkuri      : MRCI spin determinant printing, contributions to CSF-ICE
   Dipayan Datta          : RHF DLPNO-CCSD density
   Achintya Kumar Dutta   : EOM-CC, STEOM-CC
   Dmitry Ganyushin       : Spin-Orbit,Spin-Spin,Magnetic field MRCI
   Miquel Garcia          : C-PCM and meta-GGA Hessian, CC/C-PCM, Gaussian charge scheme
   Yang Guo               : DLPNO-NEVPT2, F12-NEVPT2, CIM, IAO-localization
   Andreas Hansen         : Spin unrestricted coupled pair/coupled cluster methods
   Benjamin Helmich-Paris : MC-RPA, TRAH-SCF, COSX integrals
   Lee Huntington         : MR-EOM, pCC
   Robert Izsak           : Overlap fitted RIJCOSX, COSX-SCS-MP3, EOM
   Marcus Kettner         : VPT2
   Christian Kollmar      : KDIIS, OOCD, Brueckner-CCSD(T), CCSD density, CASPT2, CASPT2-K
   Simone Kossmann        : Meta GGA functionals, TD-DFT gradient, OOMP2, MP2 Hessian
   Martin Krupicka        : Initial AUTO-CI
   Lucas Lang             : DCDCAS
   Marvin Lechner         : AUTO-CI (C++ implementation), FIC-MRCC
   Dagmar Lenk            : GEPOL surface, SMD
   Dimitrios Liakos       : Extrapolation schemes; Compound Job, initial MDCI parallelization
   Dimitrios Manganas     : Further ROCIS development; embedding schemes
   Dimitrios Pantazis     : SARC Basis sets
   Anastasios Papadopoulos: AUTO-CI, single reference methods and gradients
   Taras Petrenko         : DFT Hessian,TD-DFT gradient, ASA, ECA, R-Raman, ABS, FL, XAS/XES, NRVS
   Peter Pinski           : DLPNO-MP2, DLPNO-MP2 Gradient
   Christoph Reimann      : Effective Core Potentials
   Marius Retegan         : Local ZFS, SOC
   Christoph Riplinger    : Optimizer, TS searches, QM/MM, DLPNO-CCSD(T), (RO)-DLPNO pert. Triples
   Tobias Risthaus        : Range-separated hybrids, TD-DFT gradient, RPA, STAB
   Michael Roemelt        : Original ROCIS implementation
   Masaaki Saitow         : Open-shell DLPNO-CCSD energy and density
   Barbara Sandhoefer     : DKH picture change effects
   Avijit Sen             : IP-ROCIS
   Kantharuban Sivalingam : CASSCF convergence, NEVPT2, FIC-MRCI
   Bernardo de Souza      : ESD, SOC TD-DFT
   Georgi Stoychev        : AutoAux, RI-MP2 NMR, DLPNO-MP2 response
   Willem Van den Heuvel  : Paramagnetic NMR
   Boris Wezisla          : Elementary symmetry handling
   Frank Wennmohs         : Technical directorship


 We gratefully acknowledge several colleagues who have allowed us to
 interface, adapt or use parts of their codes:
   Stefan Grimme, W. Hujo, H. Kruse, P. Pracht,  : VdW corrections, initial TS optimization,
                  C. Bannwarth, S. Ehlert          DFT functionals, gCP, sTDA/sTD-DF
   Ed Valeev, F. Pavosevic, A. Kumar             : LibInt (2-el integral package), F12 methods
   Garnet Chan, S. Sharma, J. Yang, R. Olivares  : DMRG
   Ulf Ekstrom                                   : XCFun DFT Library
   Mihaly Kallay                                 : mrcc  (arbitrary order and MRCC methods)
   Jiri Pittner, Ondrej Demel                    : Mk-CCSD
   Frank Weinhold                                : gennbo (NPA and NBO analysis)
   Christopher J. Cramer and Donald G. Truhlar   : smd solvation model
   Lars Goerigk                                  : TD-DFT with DH, B97 family of functionals
   V. Asgeirsson, H. Jonsson                     : NEB implementation
   FAccTs GmbH                                   : IRC, NEB, NEB-TS, DLPNO-Multilevel, CI-OPT
                                                   MM, QMMM, 2- and 3-layer-ONIOM, Crystal-QMMM,
                                                   LR-CPCM, SF, NACMEs, symmetry and pop. for TD-DFT,
                                                   nearIR, NL-DFT gradient (VV10), updates on ESD,
                                                   ML-optimized integration grids
   S Lehtola, MJT Oliveira, MAL Marques          : LibXC Library
   Liviu Ungur et al                             : ANISO software


 Your calculation uses the libint2 library for the computation of 2-el integrals
 For citations please refer to: http://libint.valeyev.net

 Your ORCA version has been built with support for libXC version: 5.1.0
 For citations please refer to: https://tddft.org/programs/libxc/

 This ORCA versions uses:
   CBLAS   interface :  Fast vector & matrix operations
   LAPACKE interface :  Fast linear algebra routines
   SCALAPACK package :  Parallel linear algebra routines
   Shared memory     :  Shared parallel matrices
   BLAS/LAPACK       :  OpenBLAS 0.3.15  USE64BITINT DYNAMIC_ARCH NO_AFFINITY SkylakeX SINGLE_THREADED
        Core in use  :  SkylakeX
   Copyright (c) 2011-2014, The OpenBLAS Project


================================================================================

----- Orbital basis set information -----
Your calculation utilizes the basis: def2-SVP
   F. Weigend and R. Ahlrichs, Phys. Chem. Chem. Phys. 7, 3297 (2005).

The basis set includes element-specific modifications.

Your calculation utilizes the basis: aug-cc-pVTZ 
    H, B-Ne : Obtained from the ccRepo (grant-hill.group.shef.ac.uk/ccrepo) Feb. 2017
              R. A. Kendall, T. H. Dunning, Jr., R. J. Harrison, J. Chem. Phys. 96, 6796 (1992)
         He : Obtained from the ccRepo (grant-hill.group.shef.ac.uk/ccrepo) Feb. 2017
              D. E. Woon, T. H. Dunning, Jr., J. Chem. Phys. 100, 2975 (1994)
  Li-Be, Na : Obtained from the ccRepo (grant-hill.group.shef.ac.uk/ccrepo) Feb. 2017
              B. P. Prascher, D. E. Woon, K. A. Peterson, T. H. Dunning, Jr., A. K. Wilson, Theor. Chem. Acc. 128, 69 (2011)
         Mg : Obtained from the Peterson Research Group Website (tyr0.chem.wsu.edu/~kipeters) Feb. 2017
              B. P. Prascher, D. E. Woon, K. A. Peterson, T. H. Dunning, Jr., A. K. Wilson, Theor. Chem. Acc. 128, 69 (2011)
      Al-Ar : Obtained from the ccRepo (grant-hill.group.shef.ac.uk/ccrepo) Feb. 2017
              D. E. Woon, T. H. Dunning, Jr., J. Chem. Phys. 98, 1358 (1993)
      Sc-Zn : Obtained from the ccRepo (grant-hill.group.shef.ac.uk/ccrepo) Feb. 2017
              N. B. Balabanov, K. A. Peterson, J. Chem. Phys. 123, 064107 (2005)
              N. B. Balabanov, K. A. Peterson, J. Chem. Phys. 125, 074110 (2006)
      Ga-Kr : Obtained from the ccRepo (grant-hill.group.shef.ac.uk/ccrepo) Feb. 2017
              A. K. Wilson, D. E. Woon, K. A. Peterson, T. H. Dunning, Jr., J. Chem. Phys. 110, 7667 (1999)
     Ag, Au : Obtained from the Peterson Research Group Website (tyr0.chem.wsu.edu/~kipeters) Feb. 2017
              K. A. Peterson, C. Puzzarini, Theor. Chem. Acc. 114, 283 (2005)

Your calculation utilizes the basis: cc-pVTZ 
       H, B-Ne : Obtained from the ccRepo (grant-hill.group.shef.ac.uk/ccrepo) Feb. 2017
                 T. H. Dunning, Jr., J. Chem. Phys. 90, 1007 (1989)
            He : Obtained from the ccRepo (grant-hill.group.shef.ac.uk/ccrepo) Feb. 2017
                 D. E. Woon, T. H. Dunning, Jr., J. Chem. Phys. 100, 2975 (1994)
  Li-Be, Na-Mg : Obtained from the ccRepo (grant-hill.group.shef.ac.uk/ccrepo) Feb. 2017
                 B. P. Prascher, D. E. Woon, K. A. Peterson, T. H. Dunning, Jr., A. K. Wilson, Theor. Chem. Acc. 128, 69 (2011)
         Al-Ar : Obtained from the ccRepo (grant-hill.group.shef.ac.uk/ccrepo) Feb. 2017
                 D. E. Woon, T. H. Dunning, Jr., J. Chem. Phys. 98, 1358 (1993)
            Ca : Obtained from the Peterson Research Group Website (tyr0.chem.wsu.edu/~kipeters) Feb. 2017
                 J. Koput, K. A. Peterson, J. Phys. Chem. 106, 9595 (2002)
         Sc-Zn : Obtained from the ccRepo (grant-hill.group.shef.ac.uk/ccrepo) Feb. 2017
                 N. B. Balabanov, K. A. Peterson, J. Chem. Phys. 123, 064107 (2005)
                 N. B. Balabanov, K. A. Peterson, J. Chem. Phys. 125, 074110 (2006)
         Ga-Kr : Obtained from the ccRepo (grant-hill.group.shef.ac.uk/ccrepo) Feb. 2017
                 A. K. Wilson, D. E. Woon, K. A. Peterson, T. H. Dunning, Jr., J. Chem. Phys. 110, 7667 (1999)
             Y : Obtained from the ccRepo (grant-hill.group.shef.ac.uk/ccrepo) Feb. 2017
                 K. A. Peterson, D. Figgen, M. Dolg, H. Stoll, J. Chem. Phys. 126, 124101 (2007)
        Ag, Au : Obtained from the Peterson Research Group Website (tyr0.chem.wsu.edu/~kipeters) Feb. 2017
                 K. A. Peterson, C. Puzzarini, Theor. Chem. Acc. 114, 283 (2005)

----- AuxJ basis set information -----
Your calculation utilizes the auxiliary basis: def2/J
   F. Weigend, Phys. Chem. Chem. Phys. 8, 1057 (2006).

================================================================================
                                        WARNINGS
                       Please study these warnings very carefully!
================================================================================

WARNING: The globally-selected AuxJ basis set is optimized for use with ECPs
         Make sure a suitable alternative is explicitly given all heavy elements (Z>36)

INFO   : the flag for use of the SHARK integral package has been found!

================================================================================
                                       INPUT FILE
================================================================================
NAME = final080.orca.inp
|  1> ! NoMOPrint PrintBasis #MINIPRINT SMALLPRINT LARGEPRINT
|  2> ! ALLPOP XYZFILE
|  3> #! BP86 3-21G   TightSCF
|  4> ! ENGRAD
|  5> ! B3LYP NormalPNO PModel #DecontractAux
|  6> #! VerySlowConv 
|  7>  %maxcore 5000
|  8>  %scf  maxiter   500  end 
|  9> 
| 10> %pal
| 11>     nprocs 32
| 12> end
| 13> 
| 14> %basis
| 15>     NewGTO O    # New basis for oxygen
| 16>         "aug-cc-pVTZ"
| 17>     end
| 18>     NewGTO C    # New basis for carbon
| 19>         "aug-cc-pVTZ"
| 20>     end
| 21>     NewGTO H    # New basis for hydrogen
| 22>         "cc-pVTZ"
| 23>     end
| 24> end
| 25> 
| 26> * xyz 0   1
| 27>   C  11.08  12.37  12.02  #1
| 28>   H  10.95  11.63  12.81  #2
| 29>   H  10.57  13.29  12.28  #3
| 30>   C  10.43  11.94  10.73  #4
| 31>   H  9.35  11.91  11.04  #5
| 32>   H  10.49  12.81  10.05  #6
| 33>   C  11.02  10.62  10.08  #7
| 34>   H  12.07  10.82  10.14  #8
| 35>   H  10.83  10.65  8.96  #9
| 36>   C  10.65  9.27  10.66  #10
| 37>   H  11.15  9.07  11.62  #11
| 38>   H  10.89  8.49  9.91  #12
| 39>   O  9.29  9.12  10.92  #13
| 40>   H  8.78  9.15  10.13  #14
| 41>   O  12.54  12.6  11.88  #15
| 42>   H  12.99  11.92  12.4  #16
| 43>   O  9.23  6.91  12.62  #17
| 44>   H  9.03  7.62  12  #18
| 45>   H  10.15  7.2  12.96  #19
| 46>   O  12.93  14.74  10.21  #20
| 47>   H  13.15  14.25  9.41  #21
| 48>   H  12.6  14.01  10.75  #22
| 49>   O  15.56  12.64  12.64  #23
| 50>   H  15.7  12.42  13.56  #24
| 51>   H  14.73  13.17  12.73  #25
| 52>   O  9.33  11.96  14.6  #26
| 53>   H  9.77  11.91  15.48  #27
| 54>   H  8.39  12.3  14.62  #28
| 55>   O  14.02  10.99  8.54  #29
| 56>   H  14.87  10.56  8.79  #30
| 57>   H  13.96  10.91  7.55  #31
| 58>   O  10.98  5.8  8.99  #32
| 59>   H  11.8  5.97  9.44  #33
| 60>   H  11.22  5.21  8.26  #34
| 61>   O  11.13  15.82  13.04  #35
| 62>   H  11.67  15.17  13.48  #36
| 63>   H  10.68  16.31  13.83  #37
| 64>   O  13.09  13.4  7.59  #38
| 65>   H  13.67  12.74  8.03  #39
| 66>   H  13.37  13.65  6.67  #40
| 67>   O  8.33  8.91  15.12  #41
| 68>   H  8.63  9.72  14.65  #42
| 69>   H  8.28  8.32  14.38  #43
| 70>   O  10.19  8.01  7.09  #44
| 71>   H  10.62  7.49  7.8  #45
| 72>   H  10.59  7.54  6.31  #46
| 73>   O  17.87  13.13  11.2  #47
| 74>   H  17.94  13.95  10.64  #48
| 75>   H  17  13.2  11.6  #49
| 76>   O  14.16  15.15  12.93  #50
| 77>   H  15.05  15.39  13.14  #51
| 78>   H  13.93  15.13  11.98  #52
| 79>   O  9.28  14.44  16.41  #53
| 80>   H  8.58  14.17  15.83  #54
| 81>   H  10.06  14.71  15.89  #55
| 82>   O  11.83  14.17  15.09  #56
| 83>   H  12.68  14.45  15.41  #57
| 84>   H  11.82  13.2  15.15  #58
| 85>   O  11.28  16.8  10.64  #59
| 86>   H  11.22  16.56  11.57  #60
| 87>   H  11.58  15.97  10.3  #61
| 88>   O  7.02  8.88  8.95  #62
| 89>   H  6.15  9.16  9.28  #63
| 90>   H  7.35  9.56  8.36  #64
| 91>   O  10.27  12.56  7.16  #65
| 92>   H  11.15  12.38  7.52  #66
| 93>   H  9.65  11.91  7.46  #67
| 94>   O  11.28  11.8  16.7  #68
| 95>   H  11.2  12.47  17.39  #69
| 96>   H  10.78  11.15  17.19  #70
| 97>   O  15.2  10.14  11.51  #71
| 98>   H  15.71  10.01  10.67  #72
| 99>   H  15.49  10.91  11.98  #73
|100>   O  16.21  11.54  15.12  #74
|101>   H  16.5  12.23  15.83  #75
|102>   H  15.48  11.13  15.57  #76
|103>   O  9.02  4.4  10.85  #77
|104>   H  8.87  4.98  11.58  #78
|105>   H  9.63  4.93  10.25  #79
|106>   O  6.96  13.35  14.93  #80
|107>   H  6.89  14.12  14.27  #81
|108>   H  6.4  13.69  15.64  #82
|109>   O  8.74  10.25  7.41  #83
|110>   H  8.55  10.45  6.5  #84
|111>   H  9.47  9.64  7.41  #85
|112>   O  14.27  10.44  5.82  #86
|113>   H  14.9  11.12  5.54  #87
|114>   H  13.38  10.63  5.41  #88
|115>   O  17.01  12.71  7.98  #89
|116>   H  16.73  11.95  8.62  #90
|117>   H  16.84  13.6  8.4  #91
|118>   O  16.72  10.14  8.87  #92
|119>   H  16.68  9.72  8  #93
|120>   H  17.6  9.83  9.24  #94
|121>   O  6.32  8.34  12.71  #95
|122>   H  6.8  7.54  12.83  #96
|123>   H  6.15  8.33  11.75  #97
|124>   O  11.79  7.13  14.21  #98
|125>   H  11.22  7.46  14.93  #99
|126>   H  12.54  7.68  13.96  #100
|127>   Q  0.6645  2.95$  12.08$  13.16$
|128>   Q  0.6645  4.42$  11.74$  13.42$
|129>   Q  -1.3290  3.68$  12.08$  13.61$
|130>   Q  0.6645  7.81$  8.55$  0.98$
|131>   Q  0.6645  7.19$  9.57$  0.04$
|132>   Q  -1.3290  7.14$  8.92$  0.58$
|133>   Q  0.6645  14.32$  21.01$  9.24$
|134>   Q  0.6645  14.23$  19.58$  9.87$
|135>   Q  -1.3290  14.29$  20.16$  9.22$
|136>   Q  0.6645  13.97$  9.97$  16.98$
|137>   Q  0.6645  13.36$  11.21$  16.62$
|138>   Q  -1.3290  14.02$  10.72$  16.73$
|139>   Q  0.6645  14.53$  18.56$  4.96$
|140>   Q  0.6645  15.86$  19.1$  4.4$
|141>   Q  -1.3290  15.07$  18.81$  4.36$
|142>   Q  0.6645  7.8$  19.35$  7.58$
|143>   Q  0.6645  8.96$  18.61$  6.76$
|144>   Q  -1.3290  8.38$  18.74$  7.39$
|145>   Q  0.6645  16.32$  0.86$  14.35$
|146>   Q  0.6645  15.04$  1.24$  13.54$
|147>   Q  -1.3290  15.86$  1.31$  13.77$
|148>   Q  0.6645  18.59$  10.46$  13.43$
|149>   Q  0.6645  17.42$  10.47$  14.32$
|150>   Q  -1.3290  18.09$  10.15$  14.01$
|151>   Q  0.6645  15.92$  9.33$  20.14$
|152>   Q  0.6645  15.73$  7.93$  19.6$
|153>   Q  -1.3290  15.94$  8.74$  19.56$
|154>   Q  0.6645  21.63$  9.67$  16.3$
|155>   Q  0.6645  20.57$  9.94$  15.48$
|156>   Q  -1.3290  21.28$  9.61$  15.6$
|157>   Q  0.6645  9.08$  -0.64$  16.26$
|158>   Q  0.6645  9.93$  0.55$  15.69$
|159>   Q  -1.3290  9.59$  0.03$  16.28$
|160>   Q  0.6645  9.4$  7.02$  2.45$
|161>   Q  0.6645  8.7$  7.01$  3.73$
|162>   Q  -1.3290  9.27$  6.78$  3.23$
|163>   Q  0.6645  3.99$  15.24$  10.93$
|164>   Q  0.6645  4.89$  14.42$  10.01$
|165>   Q  -1.3290  4.41$  14.56$  10.69$
|166>   Q  0.6645  7.61$  17.6$  18.16$
|167>   Q  0.6645  8.97$  17.23$  17.6$
|168>   Q  -1.3290  8.47$  17.59$  18.15$
|169>   Q  0.6645  6.07$  9.43$  15.29$
|170>   Q  0.6645  4.64$  8.96$  15.87$
|171>   Q  -1.3290  5.35$  9.42$  15.79$
|172>   Q  0.6645  2.35$  11.58$  15.41$
|173>   Q  0.6645  1.56$  11.12$  16.61$
|174>   Q  -1.3290  1.75$  11.63$  15.96$
|175>   Q  0.6645  6.31$  2.57$  10.42$
|176>   Q  0.6645  7.19$  3.71$  10.55$
|177>   Q  -1.3290  6.47$  3.39$  10.44$
|178>   Q  0.6645  14.7$  17.65$  10.99$
|179>   Q  0.6645  13.19$  17.42$  10.75$
|180>   Q  -1.3290  13.9$  17.86$  10.96$
|181>   Q  0.6645  3.27$  15.86$  6$
|182>   Q  0.6645  2.43$  15.2$  4.81$
|183>   Q  -1.3290  2.93$  15.8$  5.2$
|184>   Q  0.6645  2.79$  13.04$  10.72$
|185>   Q  0.6645  1.42$  13.23$  11.61$
|186>   Q  -1.3290  2.03$  12.78$  11.17$
|187>   Q  0.6645  12.6$  2.73$  11.99$
|188>   Q  0.6645  12.88$  4$  12.75$
|189>   Q  -1.3290  13.06$  3.37$  12.24$
|190>   Q  0.6645  9.49$  18.72$  9.26$
|191>   Q  0.6645  10.35$  18.64$  10.55$
|192>   Q  -1.3290  9.72$  18.89$  10.05$
|193>   Q  0.6645  6.22$  7.05$  4.35$
|194>   Q  0.6645  7.05$  7.04$  5.61$
|195>   Q  -1.3290  6.89$  7.24$  4.8$
|196>   Q  0.6645  16.54$  17.63$  18.21$
|197>   Q  0.6645  15.42$  18.54$  17.61$
|198>   Q  -1.3290  15.89$  17.85$  17.69$
|199>   Q  0.6645  17.18$  16.81$  11.75$
|200>   Q  0.6645  17.13$  18.24$  11.24$
|201>   Q  -1.3290  17.03$  17.43$  11.16$
|202>   Q  0.6645  14.85$  5.59$  7.66$
|203>   Q  0.6645  15.17$  7.12$  7.65$
|204>   Q  -1.3290  15.01$  6.37$  8$
|205>   Q  0.6645  18.53$  6.63$  6.77$
|206>   Q  0.6645  17.87$  6.17$  5.47$
|207>   Q  -1.3290  18.35$  6.66$  5.94$
|208>   Q  0.6645  5.89$  10.57$  17.21$
|209>   Q  0.6645  6.72$  11.62$  18$
|210>   Q  -1.3290  6.13$  11.02$  17.9$
|211>   Q  0.6645  14.15$  7.76$  1.84$
|212>   Q  0.6645  14.89$  8.29$  3.02$
|213>   Q  -1.3290  14.45$  7.71$  2.58$
|214>   Q  0.6645  6.51$  1.17$  13.41$
|215>   Q  0.6645  7.9$  1.64$  12.96$
|216>   Q  -1.3290  7.16$  1.72$  13.36$
|217>   Q  0.6645  3.29$  19.83$  9.47$
|218>   Q  0.6645  4.54$  18.91$  9.27$
|219>   Q  -1.3290  4.14$  19.62$  9.47$
|220>   Q  0.6645  8.87$  6.46$  15.38$
|221>   Q  0.6645  9.6$  5.4$  16.16$
|222>   Q  -1.3290  9.45$  6.19$  15.9$
|223>   Q  0.6645  7.55$  7.16$  21.05$
|224>   Q  0.6645  7.45$  7.56$  19.48$
|225>   Q  -1.3290  7.7$  7.1$  20.17$
|226>   Q  0.6645  16.19$  13.07$  5.96$
|227>   Q  0.6645  15.78$  13.23$  4.57$
|228>   Q  -1.3290  15.97$  12.77$  5.23$
|229>   Q  0.6645  14.31$  11.82$  18.2$
|230>   Q  0.6645  13.21$  11.85$  19.2$
|231>   Q  -1.3290  13.94$  12.08$  18.87$
|232>   Q  0.6645  11.86$  6.61$  19.3$
|233>   Q  0.6645  13.51$  6.79$  19.2$
|234>   Q  -1.3290  12.64$  6.95$  19.46$
|235>   Q  0.6645  13.03$  11.69$  3.43$
|236>   Q  0.6645  13.88$  12.19$  2.21$
|237>   Q  -1.3290  13.62$  11.62$  2.81$
|238>   Q  0.6645  14.86$  17.23$  7.05$
|239>   Q  0.6645  14.14$  18.52$  7.38$
|240>   Q  -1.3290  14.34$  17.88$  6.88$
|241>   Q  0.6645  17.03$  16.15$  7.61$
|242>   Q  0.6645  16.87$  15.8$  6.15$
|243>   Q  -1.3290  16.6$  15.94$  6.94$
|244>   Q  0.6645  18.63$  11.07$  3.83$
|245>   Q  0.6645  18.84$  9.64$  3.81$
|246>   Q  -1.3290  18.68$  10.32$  4.2$
|247>   Q  0.6645  9.56$  3.14$  17.35$
|248>   Q  0.6645  8.26$  3.76$  16.63$
|249>   Q  -1.3290  9.1$  3.6$  16.76$
|250>   Q  0.6645  6.78$  0.43$  9.23$
|251>   Q  0.6645  7.43$  0.42$  10.64$
|252>   Q  -1.3290  7.2$  0.77$  9.9$
|253>   Q  0.6645  12.36$  4.45$  5.65$
|254>   Q  0.6645  12.03$  3.13$  6.42$
|255>   Q  -1.3290  11.88$  3.94$  6.15$
|256>   Q  0.6645  3.81$  7.53$  17.86$
|257>   Q  0.6645  3.43$  6.84$  16.63$
|258>   Q  -1.3290  3.37$  7.44$  17.17$
|259>   Q  0.6645  13.3$  9.68$  1.66$
|260>   Q  0.6645  12.63$  9.14$  0.33$
|261>   Q  -1.3290  13.29$  9.29$  0.87$
|262>   Q  0.6645  5.24$  14.19$  3.58$
|263>   Q  0.6645  4.73$  15.66$  3.81$
|264>   Q  -1.3290  5.03$  14.99$  3.35$
|265>   Q  0.6645  5.82$  4.43$  12.1$
|266>   Q  0.6645  5.9$  3.39$  13.03$
|267>   Q  -1.3290  5.69$  4.17$  12.83$
|268>   Q  0.6645  14.21$  15.62$  20.06$
|269>   Q  0.6645  14.66$  14.08$  19.63$
|270>   Q  -1.3290  14.46$  14.78$  20.15$
|271>   Q  0.6645  13.82$  0.59$  14.8$
|272>   Q  0.6645  12.71$  1.57$  14.31$
|273>   Q  -1.3290  13.28$  0.89$  14.26$
|274>   Q  0.6645  10.02$  2.72$  11.38$
|275>   Q  0.6645  10.36$  1.22$  11.31$
|276>   Q  -1.3290  10.17$  1.92$  11.66$
|277>   Q  0.6645  5.47$  4.22$  8.55$
|278>   Q  0.6645  5.63$  5.36$  7.64$
|279>   Q  -1.3290  5.18$  4.85$  8.07$
|280>   Q  0.6645  11.9$  19.19$  16.87$
|281>   Q  0.6645  11.01$  17.88$  16.93$
|282>   Q  -1.3290  11.72$  18.33$  17.05$
|283>   Q  0.6645  11.41$  18.34$  7.43$
|284>   Q  0.6645  11.4$  19.61$  8.44$
|285>   Q  -1.3290  11.59$  19.15$  7.75$
|286>   Q  0.6645  0.78$  7.33$  6.49$
|287>   Q  0.6645  0.42$  8.23$  5.26$
|288>   Q  -1.3290  0.71$  7.55$  5.65$
|289>   Q  0.6645  12.56$  14.76$  1.98$
|290>   Q  0.6645  11.43$  13.8$  2.32$
|291>   Q  -1.3290  11.84$  14.32$  1.84$
|292>   Q  0.6645  3.26$  17.69$  11.61$
|293>   Q  0.6645  3.96$  16.66$  12.52$
|294>   Q  -1.3290  3.87$  17.15$  11.84$
|295>   Q  0.6645  18.97$  10.69$  6.48$
|296>   Q  0.6645  18.65$  11.76$  7.44$
|297>   Q  -1.3290  19.13$  11.18$  7.12$
|298>   Q  0.6645  14.14$  6.1$  10.06$
|299>   Q  0.6645  13.32$  5.09$  10.79$
|300>   Q  -1.3290  13.55$  5.85$  10.6$
|301>   Q  0.6645  12.74$  17.57$  18.83$
|302>   Q  0.6645  12.18$  16.59$  19.92$
|303>   Q  -1.3290  12.72$  17.16$  19.57$
|304>   Q  0.6645  4.08$  14.15$  13.89$
|305>   Q  0.6645  4.74$  15.18$  14.72$
|306>   Q  -1.3290  4.13$  14.92$  14.24$
|307>   Q  0.6645  5.49$  17.69$  7.3$
|308>   Q  0.6645  7.04$  17.37$  7.62$
|309>   Q  -1.3290  6.16$  17.27$  7.63$
|310>   Q  0.6645  7.52$  3.03$  5.1$
|311>   Q  0.6645  6.01$  2.68$  5.12$
|312>   Q  -1.3290  6.8$  2.53$  4.99$
|313>   Q  0.6645  7.31$  16.34$  13.5$
|314>   Q  0.6645  6.51$  16.83$  14.66$
|315>   Q  -1.3290  7.01$  16.3$  14.25$
|316>   Q  0.6645  7.58$  9.26$  4.71$
|317>   Q  0.6645  8.69$  9.94$  4.01$
|318>   Q  -1.3290  8.04$  9.92$  4.51$
|319>   Q  0.6645  10.05$  10.31$  2.05$
|320>   Q  0.6645  10.44$  9.26$  3.1$
|321>   Q  -1.3290  10.1$  9.98$  2.83$
|322>   Q  0.6645  6.5$  2.09$  16.82$
|323>   Q  0.6645  6.85$  2.57$  15.42$
|324>   Q  -1.3290  6.61$  2.65$  16.22$
|325>   Q  0.6645  13.04$  19.37$  12.1$
|326>   Q  0.6645  12.85$  20.71$  12.91$
|327>   Q  -1.3290  12.68$  20.11$  12.34$
|328>   Q  0.6645  11.73$  8.34$  20.47$
|329>   Q  0.6645  11.17$  9.68$  20.36$
|330>   Q  -1.3290  11.4$  9.01$  20.78$
|331>   Q  0.6645  17.13$  5.89$  12.93$
|332>   Q  0.6645  16.42$  4.58$  13.39$
|333>   Q  -1.3290  16.81$  5.13$  12.86$
|334>   Q  0.6645  9.49$  9.84$  18.71$
|335>   Q  0.6645  9.52$  11.39$  19.12$
|336>   Q  -1.3290  9.81$  10.58$  19.03$
|337>   Q  0.6645  19.15$  11.32$  17.65$
|338>   Q  0.6645  18.91$  10.18$  16.69$
|339>   Q  -1.3290  19.24$  10.9$  16.93$
|340>   Q  0.6645  3$  9.07$  3.89$
|341>   Q  0.6645  2.52$  7.71$  4.31$
|342>   Q  -1.3290  2.84$  8.24$  3.8$
|343>   Q  0.6645  10.11$  2.4$  3.56$
|344>   Q  0.6645  10.32$  1.09$  4.39$
|345>   Q  -1.3290  10.48$  1.66$  3.79$
|346>   Q  0.6645  17.44$  13.41$  17.64$
|347>   Q  0.6645  16.75$  12.2$  18.13$
|348>   Q  -1.3290  16.8$  12.88$  17.68$
|349>   Q  0.6645  17.32$  20.79$  8.26$
|350>   Q  0.6645  16.17$  19.9$  8.75$
|351>   Q  -1.3290  16.98$  20.18$  8.72$
|352>   Q  0.6645  4.56$  10.22$  10.56$
|353>   Q  0.6645  3.91$  9.39$  9.39$
|354>   Q  -1.3290  4.46$  9.59$  9.98$
|355>   Q  0.6645  12.41$  8.42$  17.93$
|356>   Q  0.6645  12.76$  8.09$  16.53$
|357>   Q  -1.3290  12.47$  8.59$  17.11$
|358>   Q  0.6645  2.34$  16.02$  14.12$
|359>   Q  0.6645  1.26$  16.74$  14.89$
|360>   Q  -1.3290  1.66$  16.49$  14.2$
|361>   Q  0.6645  0.5$  9.95$  12.67$
|362>   Q  0.6645  0.9$  10.38$  14.04$
|363>   Q  -1.3290  1.03$  10.29$  13.22$
|364>   Q  0.6645  10.56$  19.71$  5.16$
|365>   Q  0.6645  9.8$  18.36$  4.73$
|366>   Q  -1.3290  9.93$  19.24$  4.78$
|367>   Q  0.6645  17.51$  20.32$  12.13$
|368>   Q  0.6645  16.55$  20.68$  11.13$
|369>   Q  -1.3290  16.79$  20.26$  11.78$
|370>   Q  0.6645  16.26$  5.48$  15.79$
|371>   Q  0.6645  16.51$  6.98$  15.38$
|372>   Q  -1.3290  16.53$  6.29$  15.89$
|373>   Q  0.6645  20.52$  8.39$  10.09$
|374>   Q  0.6645  22.03$  8.43$  10.1$
|375>   Q  -1.3290  21.25$  8.12$  10.28$
|376>   Q  0.6645  19.85$  13.43$  13.85$
|377>   Q  0.6645  19.18$  13.57$  12.49$
|378>   Q  -1.3290  19.5$  13.87$  13.2$
|379>   Q  0.6645  9.01$  16.58$  15.09$
|380>   Q  0.6645  9.73$  17.84$  14.41$
|381>   Q  -1.3290  9.66$  17.14$  14.95$
|382>   Q  0.6645  5.98$  11.58$  5.9$
|383>   Q  0.6645  5.93$  10.36$  6.85$
|384>   Q  -1.3290  5.85$  11.18$  6.65$
|385>   Q  0.6645  6.74$  13.07$  1.57$
|386>   Q  0.6645  5.67$  12.02$  1.77$
|387>   Q  -1.3290  6.06$  12.64$  1.35$
|388>   Q  0.6645  5.07$  18.02$  16.98$
|389>   Q  0.6645  4.85$  18.85$  15.64$
|390>   Q  -1.3290  5.29$  18.38$  16.24$
|391>   Q  0.6645  14.25$  1.32$  9.92$
|392>   Q  0.6645  13.35$  1.38$  8.71$
|393>   Q  -1.3290  13.51$  1.27$  9.5$
|394>   Q  0.6645  12.36$  16.62$  6.51$
|395>   Q  0.6645  11.78$  15.8$  7.5$
|396>   Q  -1.3290  11.73$  16.34$  6.94$
|397>   Q  0.6645  12.49$  5.46$  14.75$
|398>   Q  0.6645  12.19$  3.85$  15.06$
|399>   Q  -1.3290  12.66$  4.58$  14.87$
|400>   Q  0.6645  17.37$  16.33$  14.11$
|401>   Q  0.6645  17.78$  15.2$  13.39$
|402>   Q  -1.3290  17.29$  15.83$  13.48$
|403>   Q  0.6645  2.2$  5.87$  14.92$
|404>   Q  0.6645  2.67$  4.4$  14.86$
|405>   Q  -1.3290  2.66$  5.19$  15.19$
|406>   Q  0.6645  0.14$  6.63$  11.46$
|407>   Q  0.6645  1.22$  5.68$  11.99$
|408>   Q  -1.3290  0.41$  5.91$  11.85$
|409>   Q  0.6645  15.15$  18.35$  14.66$
|410>   Q  0.6645  15.84$  19.17$  13.56$
|411>   Q  -1.3290  15.73$  18.86$  14.36$
|412>   Q  0.6645  16.29$  14.19$  2.09$
|413>   Q  0.6645  16.96$  15.13$  3.04$
|414>   Q  -1.3290  16.56$  14.43$  2.84$
|415>   Q  0.6645  7.14$  9.36$  18.08$
|416>   Q  0.6645  8.17$  8.8$  17.02$
|417>   Q  -1.3290  7.88$  9$  17.79$
|418>   Q  0.6645  6.51$  6.32$  15.48$
|419>   Q  0.6645  6.25$  5.55$  14.16$
|420>   Q  -1.3290  6.64$  6.1$  14.67$
|421>   Q  0.6645  14.27$  8.86$  12.15$
|422>   Q  0.6645  13.76$  7.35$  11.96$
|423>   Q  -1.3290  13.98$  8.05$  12.39$
|424>   Q  0.6645  6.42$  17.73$  9.45$
|425>   Q  0.6645  5.68$  17.45$  10.74$
|426>   Q  -1.3290  6.34$  17.74$  10.27$
|427>   Q  0.6645  7.47$  14.2$  11.56$
|428>   Q  0.6645  5.9$  13.93$  11.65$
|429>   Q  -1.3290  6.76$  13.78$  11.72$
|430>   Q  0.6645  11.11$  20.88$  10.7$
|431>   Q  0.6645  11.75$  21.99$  9.88$
|432>   Q  -1.3290  11.11$  21.46$  10.09$
|433>   Q  0.6645  10.86$  2.13$  13.72$
|434>   Q  0.6645  10.31$  2.82$  15.02$
|435>   Q  -1.3290  10.79$  2.3$  14.56$
|436>   Q  0.6645  7.54$  14.82$  21.17$
|437>   Q  0.6645  6.48$  14.02$  20.41$
|438>   Q  -1.3290  7.18$  14.47$  20.52$
|439>   Q  0.6645  14.97$  14.27$  16.86$
|440>   Q  0.6645  14.55$  15.72$  16.99$
|441>   Q  -1.3290  14.41$  14.89$  16.99$
|442>   Q  0.6645  3.89$  5.42$  9.24$
|443>   Q  0.6645  3.22$  5.28$  10.7$
|444>   Q  -1.3290  3.25$  5.4$  9.84$
|445>   Q  0.6645  10.56$  15.75$  2.11$
|446>   Q  0.6645  10.4$  17.12$  2.28$
|447>   Q  -1.3290  10.09$  16.39$  2.26$
|448>   Q  0.6645  10.22$  16.4$  20.67$
|449>   Q  0.6645  10.96$  15.24$  21.52$
|450>   Q  -1.3290  10.71$  15.67$  20.79$
|451>   Q  0.6645  12.88$  3.92$  1.72$
|452>   Q  0.6645  12$  3.24$  2.86$
|453>   Q  -1.3290  12.73$  3.46$  2.45$
|454>   Q  0.6645  8.94$  12.66$  1.72$
|455>   Q  0.6645  8.43$  14.01$  2.33$
|456>   Q  -1.3290  8.54$  13.16$  2.3$
|457>   Q  0.6645  18.5$  10.62$  19.92$
|458>   Q  0.6645  18.63$  12.18$  19.9$
|459>   Q  -1.3290  18.53$  11.4$  19.57$
|460>   Q  0.6645  3.97$  2.05$  6.4$
|461>   Q  0.6645  4.2$  3.48$  7.03$
|462>   Q  -1.3290  4$  2.91$  6.43$
|463>   Q  0.6645  11.11$  11.29$  4.13$
|464>   Q  0.6645  11.1$  12.3$  5.23$
|465>   Q  -1.3290  11.46$  11.78$  4.69$
|466>   Q  0.6645  8.59$  1.75$  8.94$
|467>   Q  0.6645  9.99$  1.26$  8.94$
|468>   Q  -1.3290  9.36$  1.77$  8.69$
|469>   Q  0.6645  6.64$  11.83$  21.32$
|470>   Q  0.6645  6.75$  11.28$  19.9$
|471>   Q  -1.3290  6.95$  11.37$  20.72$
|472>   Q  0.6645  16.9$  6.45$  8.66$
|473>   Q  0.6645  18.33$  5.8$  9.22$
|474>   Q  -1.3290  17.8$  6.3$  8.74$
|475>   Q  0.6645  9.9$  6.67$  17.96$
|476>   Q  0.6645  9.31$  6.52$  19.33$
|477>   Q  -1.3290  9.94$  6.44$  18.77$
|478>   Q  0.6645  14.85$  11.53$  20.44$
|479>   Q  0.6645  14.53$  10.25$  21.38$
|480>   Q  -1.3290  15$  10.91$  21.08$
|481>   Q  0.6645  17.86$  7.5$  16.98$
|482>   Q  0.6645  17.66$  8.67$  18.05$
|483>   Q  -1.3290  18.13$  8.15$  17.5$
|484>   Q  0.6645  8.18$  19.43$  17.57$
|485>   Q  0.6645  7$  19.46$  16.6$
|486>   Q  -1.3290  7.69$  19.8$  17.02$
|487>   Q  0.6645  12.73$  7.68$  4.44$
|488>   Q  0.6645  13.14$  8.01$  5.81$
|489>   Q  -1.3290  12.69$  7.61$  5.27$
|490>   Q  0.6645  6.86$  19.81$  11.87$
|491>   Q  0.6645  8.03$  20$  10.92$
|492>   Q  -1.3290  7.54$  20.21$  11.57$
|493>   Q  0.6645  12.6$  14.09$  18.22$
|494>   Q  0.6645  11.38$  14.58$  19.15$
|495>   Q  -1.3290  11.81$  14.07$  18.61$
|496>   Q  0.6645  21.9$  10.52$  9.64$
|497>   Q  0.6645  22.47$  11.12$  10.97$
|498>   Q  -1.3290  21.86$  10.81$  10.44$
|499>   Q  0.6645  16.61$  4.12$  10.84$
|500>   Q  0.6645  17.94$  3.44$  10.48$
|501>   Q  -1.3290  17.09$  3.61$  10.39$
|502>   Q  0.6645  9$  -0.52$  6.35$
|503>   Q  0.6645  9.39$  0.81$  6.91$
|504>   Q  -1.3290  9.49$  0.14$  6.43$
|505>   Q  0.6645  10.21$  11.75$  -0.22$
|506>   Q  0.6645  8.69$  11.46$  -0.3$
|507>   Q  -1.3290  9.42$  11.65$  0.12$
|508>   Q  0.6645  12.13$  12.78$  21.6$
|509>   Q  0.6645  11.45$  12.82$  20.18$
|510>   Q  -1.3290  11.83$  12.46$  20.88$
|511>   Q  0.6645  20.11$  11.2$  11.64$
|512>   Q  0.6645  18.61$  11.63$  11.75$
|513>   Q  -1.3290  19.32$  11.16$  11.94$
|514>   Q  0.6645  10.23$  16.64$  5.62$
|515>   Q  0.6645  9.56$  16.15$  4.23$
|516>   Q  -1.3290  9.67$  16.65$  4.96$
|517>   Q  0.6645  8.74$  3.59$  7.26$
|518>   Q  0.6645  9.68$  4.38$  6.44$
|519>   Q  -1.3290  8.93$  4.08$  6.64$
|520>   Q  0.6645  6.27$  16$  19.38$
|521>   Q  0.6645  5.45$  17.39$  19.19$
|522>   Q  -1.3290  5.92$  16.68$  18.95$
|523>   Q  0.6645  9.21$  19.72$  12.91$
|524>   Q  0.6645  10.75$  19.63$  13.08$
|525>   Q  -1.3290  9.92$  19.35$  13.15$
|526>   Q  0.6645  3.88$  2.07$  11.5$
|527>   Q  0.6645  4.31$  0.72$  12.05$
|528>   Q  -1.3290  4.29$  1.56$  12.02$
|529>   Q  0.6645  0.59$  15.38$  12.71$
|530>   Q  0.6645  -0.65$  14.56$  12.33$
|531>   Q  -1.3290  0.17$  14.73$  12.34$
|532>   Q  0.6645  13.96$  4.74$  18.33$
|533>   Q  0.6645  13.57$  4.42$  16.86$
|534>   Q  -1.3290  13.56$  4.34$  17.7$
|535>   Q  0.6645  17.11$  8.58$  13.72$
|536>   Q  0.6645  15.74$  8.05$  13.25$
|537>   Q  -1.3290  16.52$  7.97$  13.59$
|538>   Q  0.6645  14.73$  4.04$  14.82$
|539>   Q  0.6645  15.67$  2.93$  15.41$
|540>   Q  -1.3290  15.39$  3.73$  15.31$
|541>   Q  0.6645  14.92$  15.27$  2.95$
|542>   Q  0.6645  14.45$  16.69$  2.97$
|543>   Q  -1.3290  14.37$  15.87$  2.93$
|544>   Q  0.6645  3.56$  15.87$  8.32$
|545>   Q  0.6645  2.29$  16.72$  7.99$
|546>   Q  -1.3290  2.73$  16.04$  8.2$
|547>   Q  0.6645  16.63$  3.71$  8.36$
|548>   Q  0.6645  16.64$  3.74$  6.87$
|549>   Q  -1.3290  16.29$  3.58$  7.64$
|550>   Q  0.6645  9.62$  6.86$  0.41$
|551>   Q  0.6645  10.14$  8.26$  0.42$
|552>   Q  -1.3290  9.61$  7.66$  0.63$
|553>   Q  0.6645  3.16$  6.45$  12.67$
|554>   Q  0.6645  3.9$  5.23$  12.53$
|555>   Q  -1.3290  3.21$  5.68$  12.46$
|556>   Q  0.6645  2.5$  3.49$  9.83$
|557>   Q  0.6645  1.99$  2.05$  9.69$
|558>   Q  -1.3290  2.38$  2.68$  10.06$
|559>   Q  0.6645  7.5$  7.4$  7.61$
|560>   Q  0.6645  7.98$  5.91$  7.1$
|561>   Q  -1.3290  7.41$  6.56$  7.33$
|562>   Q  0.6645  4.07$  10.83$  4.02$
|563>   Q  0.6645  3.11$  10.78$  5.24$
|564>   Q  -1.3290  3.33$  10.82$  4.43$
|565>   Q  0.6645  18.2$  7.98$  10.24$
|566>   Q  0.6645  18.7$  9.07$  11.24$
|567>   Q  -1.3290  18.56$  8.73$  10.47$
|568>   Q  0.6645  6.49$  11.72$  12.21$
|569>   Q  0.6645  6.01$  10.25$  12.6$
|570>   Q  -1.3290  5.94$  11.06$  12.31$
|571>   Q  0.6645  8.14$  16.88$  11.1$
|572>   Q  0.6645  9.21$  16.17$  12.01$
|573>   Q  -1.3290  8.42$  16.35$  11.71$
|574>   Q  0.6645  7.19$  12.79$  4.25$
|575>   Q  0.6645  6.86$  13.64$  5.34$
|576>   Q  -1.3290  6.66$  13.25$  4.65$
|577>   Q  0.6645  12.41$  20.12$  6.24$
|578>   Q  0.6645  11.77$  21.44$  5.9$
|579>   Q  -1.3290  12.25$  20.8$  5.76$
|580>   Q  0.6645  5.17$  5.41$  17.59$
|581>   Q  0.6645  5.96$  6.65$  17.87$
|582>   Q  -1.3290  5.81$  5.96$  17.45$
|583>   Q  0.6645  15.77$  6.08$  19.64$
|584>   Q  0.6645  15.94$  6.07$  18.1$
|585>   Q  -1.3290  15.51$  6.05$  18.84$
|586>   Q  0.6645  17.19$  17.15$  16.34$
|587>   Q  0.6645  17.4$  18.03$  15.13$
|588>   Q  -1.3290  17.58$  17.4$  15.64$
|589>   Q  0.6645  8.19$  13.36$  19.23$
|590>   Q  0.6645  8.88$  13.59$  17.81$
|591>   Q  -1.3290  8.55$  13.13$  18.5$
|592>   Q  0.6645  16.31$  4.32$  5.15$
|593>   Q  0.6645  17.52$  3.63$  4.63$
|594>   Q  -1.3290  17.11$  4.22$  5.07$
|595>   Q  0.6645  15.2$  10.27$  3.57$
|596>   Q  0.6645  16.63$  10.44$  3.93$
|597>   Q  -1.3290  15.97$  10.03$  3.63$
|598>   Q  0.6645  14.15$  4.28$  3.87$
|599>   Q  0.6645  14.08$  5.67$  4.46$
|600>   Q  -1.3290  14.31$  4.87$  4.45$
|601>   Q  0.6645  18.8$  15.44$  9.13$
|602>   Q  0.6645  17.54$  16.13$  9.88$
|603>   Q  -1.3290  17.98$  15.59$  9.38$
|604>   Q  0.6645  20.65$  9.91$  8.05$
|605>   Q  0.6645  21.78$  10.13$  6.97$
|606>   Q  -1.3290  21.46$  9.99$  7.74$
|607>   Q  0.6645  2.91$  10.66$  7.34$
|608>   Q  0.6645  1.97$  9.51$  7.1$
|609>   Q  -1.3290  2.67$  9.96$  6.96$
|610>   Q  0.6645  3.48$  13.32$  7.35$
|611>   Q  0.6645  2.57$  12.93$  6.14$
|612>   Q  -1.3290  2.86$  12.91$  6.93$
|613>   Q  0.6645  4.22$  6.67$  3.37$
|614>   Q  0.6645  4.48$  5.17$  3.71$
|615>   Q  -1.3290  4.69$  5.95$  3.46$
|616>   Q  0.6645  15.81$  0.69$  11.73$
|617>   Q  0.6645  16.31$  1.85$  10.91$
|618>   Q  -1.3290  15.93$  1.11$  11.01$
|619>   Q  0.6645  2.62$  8.1$  10.4$
|620>   Q  0.6645  2.24$  7.4$  9.07$
|621>   Q  -1.3290  2.22$  8$  9.66$
|622>   Q  0.6645  5.6$  9.91$  1.94$
|623>   Q  0.6645  6.16$  10.3$  3.31$
|624>   Q  -1.3290  5.57$  10.24$  2.72$
|625>   Q  0.6645  9.42$  3.99$  1.94$
|626>   Q  0.6645  9.1$  4.87$  3.09$
|627>   Q  -1.3290  9.19$  4.15$  2.71$
|628>   Q  0.6645  8.95$  13.96$  6.77$
|629>   Q  0.6645  8.31$  15.37$  6.29$
|630>   Q  -1.3290  8.3$  14.53$  6.51$
|631>   Q  0.6645  19.11$  14.73$  19.06$
|632>   Q  0.6645  19.56$  14.69$  17.55$
|633>   Q  -1.3290  19.01$  14.76$  18.19$
|634>   Q  0.6645  15.83$  8.95$  5.88$
|635>   Q  0.6645  17.08$  8.09$  6.18$
|636>   Q  -1.3290  16.37$  8.5$  6.38$
|637>   Q  0.6645  5.38$  13.04$  7.77$
|638>   Q  0.6645  5.97$  14.44$  7.74$
|639>   Q  -1.3290  5.38$  13.86$  7.93$
|640>   Q  0.6645  14.7$  15.15$  6.03$
|641>   Q  0.6645  13.98$  15.29$  4.65$
|642>   Q  -1.3290  14.19$  14.93$  5.4$
|643>   Q  0.6645  14.23$  2.61$  7.19$
|644>   Q  0.6645  13.92$  1.22$  6.59$
|645>   Q  -1.3290  13.72$  1.97$  6.97$
|646>   Q  0.6645  4.58$  14.08$  17.15$
|647>   Q  0.6645  5.62$  15.18$  17.5$
|648>   Q  -1.3290  5.29$  14.54$  17.07$
|649>   Q  0.6645  20.21$  12.32$  15.88$
|650>   Q  0.6645  21.62$  12.46$  15.33$
|651>   Q  -1.3290  20.84$  12.73$  15.54$
|652>   Q  0.6645  13.49$  16.48$  14.05$
|653>   Q  0.6645  12.98$  17.19$  15.41$
|654>   Q  -1.3290  13.5$  17.02$  14.75$
|655>   Q  0.6645  4.48$  8.4$  13.39$
|656>   Q  0.6645  3.19$  9.11$  13.36$
|657>   Q  -1.3290  3.66$  8.45$  13.36$
|658> *
|659> 
|660>                          ****END OF INPUT****
================================================================================

                     *******************************
                     * Energy+Gradient Calculation *
                     *******************************

---------------------------------
CARTESIAN COORDINATES (ANGSTROEM)
---------------------------------
  C     11.080000   12.370000   12.020000
  H     10.950000   11.630000   12.810000
  H     10.570000   13.290000   12.280000
  C     10.430000   11.940000   10.730000
  H      9.350000   11.910000   11.040000
  H     10.490000   12.810000   10.050000
  C     11.020000   10.620000   10.080000
  H     12.070000   10.820000   10.140000
  H     10.830000   10.650000    8.960000
  C     10.650000    9.270000   10.660000
  H     11.150000    9.070000   11.620000
  H     10.890000    8.490000    9.910000
  O      9.290000    9.120000   10.920000
  H      8.780000    9.150000   10.130000
  O     12.540000   12.600000   11.880000
  H     12.990000   11.920000   12.400000
  O      9.230000    6.910000   12.620000
  H      9.030000    7.620000   12.000000
  H     10.150000    7.200000   12.960000
  O     12.930000   14.740000   10.210000
  H     13.150000   14.250000    9.410000
  H     12.600000   14.010000   10.750000
  O     15.560000   12.640000   12.640000
  H     15.700000   12.420000   13.560000
  H     14.730000   13.170000   12.730000
  O      9.330000   11.960000   14.600000
  H      9.770000   11.910000   15.480000
  H      8.390000   12.300000   14.620000
  O     14.020000   10.990000    8.540000
  H     14.870000   10.560000    8.790000
  H     13.960000   10.910000    7.550000
  O     10.980000    5.800000    8.990000
  H     11.800000    5.970000    9.440000
  H     11.220000    5.210000    8.260000
  O     11.130000   15.820000   13.040000
  H     11.670000   15.170000   13.480000
  H     10.680000   16.310000   13.830000
  O     13.090000   13.400000    7.590000
  H     13.670000   12.740000    8.030000
  H     13.370000   13.650000    6.670000
  O      8.330000    8.910000   15.120000
  H      8.630000    9.720000   14.650000
  H      8.280000    8.320000   14.380000
  O     10.190000    8.010000    7.090000
  H     10.620000    7.490000    7.800000
  H     10.590000    7.540000    6.310000
  O     17.870000   13.130000   11.200000
  H     17.940000   13.950000   10.640000
  H     17.000000   13.200000   11.600000
  O     14.160000   15.150000   12.930000
  H     15.050000   15.390000   13.140000
  H     13.930000   15.130000   11.980000
  O      9.280000   14.440000   16.410000
  H      8.580000   14.170000   15.830000
  H     10.060000   14.710000   15.890000
  O     11.830000   14.170000   15.090000
  H     12.680000   14.450000   15.410000
  H     11.820000   13.200000   15.150000
  O     11.280000   16.800000   10.640000
  H     11.220000   16.560000   11.570000
  H     11.580000   15.970000   10.300000
  O      7.020000    8.880000    8.950000
  H      6.150000    9.160000    9.280000
  H      7.350000    9.560000    8.360000
  O     10.270000   12.560000    7.160000
  H     11.150000   12.380000    7.520000
  H      9.650000   11.910000    7.460000
  O     11.280000   11.800000   16.700000
  H     11.200000   12.470000   17.390000
  H     10.780000   11.150000   17.190000
  O     15.200000   10.140000   11.510000
  H     15.710000   10.010000   10.670000
  H     15.490000   10.910000   11.980000
  O     16.210000   11.540000   15.120000
  H     16.500000   12.230000   15.830000
  H     15.480000   11.130000   15.570000
  O      9.020000    4.400000   10.850000
  H      8.870000    4.980000   11.580000
  H      9.630000    4.930000   10.250000
  O      6.960000   13.350000   14.930000
  H      6.890000   14.120000   14.270000
  H      6.400000   13.690000   15.640000
  O      8.740000   10.250000    7.410000
  H      8.550000   10.450000    6.500000
  H      9.470000    9.640000    7.410000
  O     14.270000   10.440000    5.820000
  H     14.900000   11.120000    5.540000
  H     13.380000   10.630000    5.410000
  O     17.010000   12.710000    7.980000
  H     16.730000   11.950000    8.620000
  H     16.840000   13.600000    8.400000
  O     16.720000   10.140000    8.870000
  H     16.680000    9.720000    8.000000
  H     17.600000    9.830000    9.240000
  O      6.320000    8.340000   12.710000
  H      6.800000    7.540000   12.830000
  H      6.150000    8.330000   11.750000
  O     11.790000    7.130000   14.210000
  H     11.220000    7.460000   14.930000
  H     12.540000    7.680000   13.960000
  Q      2.950000   12.080000   13.160000
  Q      4.420000   11.740000   13.420000
  Q      3.680000   12.080000   13.610000
  Q      7.810000    8.550000    0.980000
  Q      7.190000    9.570000    0.040000
  Q      7.140000    8.920000    0.580000
  Q     14.320000   21.010000    9.240000
  Q     14.230000   19.580000    9.870000
  Q     14.290000   20.160000    9.220000
  Q     13.970000    9.970000   16.980000
  Q     13.360000   11.210000   16.620000
  Q     14.020000   10.720000   16.730000
  Q     14.530000   18.560000    4.960000
  Q     15.860000   19.100000    4.400000
  Q     15.070000   18.810000    4.360000
  Q      7.800000   19.350000    7.580000
  Q      8.960000   18.610000    6.760000
  Q      8.380000   18.740000    7.390000
  Q     16.320000    0.860000   14.350000
  Q     15.040000    1.240000   13.540000
  Q     15.860000    1.310000   13.770000
  Q     18.590000   10.460000   13.430000
  Q     17.420000   10.470000   14.320000
  Q     18.090000   10.150000   14.010000
  Q     15.920000    9.330000   20.140000
  Q     15.730000    7.930000   19.600000
  Q     15.940000    8.740000   19.560000
  Q     21.630000    9.670000   16.300000
  Q     20.570000    9.940000   15.480000
  Q     21.280000    9.610000   15.600000
  Q      9.080000   -0.640000   16.260000
  Q      9.930000    0.550000   15.690000
  Q      9.590000    0.030000   16.280000
  Q      9.400000    7.020000    2.450000
  Q      8.700000    7.010000    3.730000
  Q      9.270000    6.780000    3.230000
  Q      3.990000   15.240000   10.930000
  Q      4.890000   14.420000   10.010000
  Q      4.410000   14.560000   10.690000
  Q      7.610000   17.600000   18.160000
  Q      8.970000   17.230000   17.600000
  Q      8.470000   17.590000   18.150000
  Q      6.070000    9.430000   15.290000
  Q      4.640000    8.960000   15.870000
  Q      5.350000    9.420000   15.790000
  Q      2.350000   11.580000   15.410000
  Q      1.560000   11.120000   16.610000
  Q      1.750000   11.630000   15.960000
  Q      6.310000    2.570000   10.420000
  Q      7.190000    3.710000   10.550000
  Q      6.470000    3.390000   10.440000
  Q     14.700000   17.650000   10.990000
  Q     13.190000   17.420000   10.750000
  Q     13.900000   17.860000   10.960000
  Q      3.270000   15.860000    6.000000
  Q      2.430000   15.200000    4.810000
  Q      2.930000   15.800000    5.200000
  Q      2.790000   13.040000   10.720000
  Q      1.420000   13.230000   11.610000
  Q      2.030000   12.780000   11.170000
  Q     12.600000    2.730000   11.990000
  Q     12.880000    4.000000   12.750000
  Q     13.060000    3.370000   12.240000
  Q      9.490000   18.720000    9.260000
  Q     10.350000   18.640000   10.550000
  Q      9.720000   18.890000   10.050000
  Q      6.220000    7.050000    4.350000
  Q      7.050000    7.040000    5.610000
  Q      6.890000    7.240000    4.800000
  Q     16.540000   17.630000   18.210000
  Q     15.420000   18.540000   17.610000
  Q     15.890000   17.850000   17.690000
  Q     17.180000   16.810000   11.750000
  Q     17.130000   18.240000   11.240000
  Q     17.030000   17.430000   11.160000
  Q     14.850000    5.590000    7.660000
  Q     15.170000    7.120000    7.650000
  Q     15.010000    6.370000    8.000000
  Q     18.530000    6.630000    6.770000
  Q     17.870000    6.170000    5.470000
  Q     18.350000    6.660000    5.940000
  Q      5.890000   10.570000   17.210000
  Q      6.720000   11.620000   18.000000
  Q      6.130000   11.020000   17.900000
  Q     14.150000    7.760000    1.840000
  Q     14.890000    8.290000    3.020000
  Q     14.450000    7.710000    2.580000
  Q      6.510000    1.170000   13.410000
  Q      7.900000    1.640000   12.960000
  Q      7.160000    1.720000   13.360000
  Q      3.290000   19.830000    9.470000
  Q      4.540000   18.910000    9.270000
  Q      4.140000   19.620000    9.470000
  Q      8.870000    6.460000   15.380000
  Q      9.600000    5.400000   16.160000
  Q      9.450000    6.190000   15.900000
  Q      7.550000    7.160000   21.050000
  Q      7.450000    7.560000   19.480000
  Q      7.700000    7.100000   20.170000
  Q     16.190000   13.070000    5.960000
  Q     15.780000   13.230000    4.570000
  Q     15.970000   12.770000    5.230000
  Q     14.310000   11.820000   18.200000
  Q     13.210000   11.850000   19.200000
  Q     13.940000   12.080000   18.870000
  Q     11.860000    6.610000   19.300000
  Q     13.510000    6.790000   19.200000
  Q     12.640000    6.950000   19.460000
  Q     13.030000   11.690000    3.430000
  Q     13.880000   12.190000    2.210000
  Q     13.620000   11.620000    2.810000
  Q     14.860000   17.230000    7.050000
  Q     14.140000   18.520000    7.380000
  Q     14.340000   17.880000    6.880000
  Q     17.030000   16.150000    7.610000
  Q     16.870000   15.800000    6.150000
  Q     16.600000   15.940000    6.940000
  Q     18.630000   11.070000    3.830000
  Q     18.840000    9.640000    3.810000
  Q     18.680000   10.320000    4.200000
  Q      9.560000    3.140000   17.350000
  Q      8.260000    3.760000   16.630000
  Q      9.100000    3.600000   16.760000
  Q      6.780000    0.430000    9.230000
  Q      7.430000    0.420000   10.640000
  Q      7.200000    0.770000    9.900000
  Q     12.360000    4.450000    5.650000
  Q     12.030000    3.130000    6.420000
  Q     11.880000    3.940000    6.150000
  Q      3.810000    7.530000   17.860000
  Q      3.430000    6.840000   16.630000
  Q      3.370000    7.440000   17.170000
  Q     13.300000    9.680000    1.660000
  Q     12.630000    9.140000    0.330000
  Q     13.290000    9.290000    0.870000
  Q      5.240000   14.190000    3.580000
  Q      4.730000   15.660000    3.810000
  Q      5.030000   14.990000    3.350000
  Q      5.820000    4.430000   12.100000
  Q      5.900000    3.390000   13.030000
  Q      5.690000    4.170000   12.830000
  Q     14.210000   15.620000   20.060000
  Q     14.660000   14.080000   19.630000
  Q     14.460000   14.780000   20.150000
  Q     13.820000    0.590000   14.800000
  Q     12.710000    1.570000   14.310000
  Q     13.280000    0.890000   14.260000
  Q     10.020000    2.720000   11.380000
  Q     10.360000    1.220000   11.310000
  Q     10.170000    1.920000   11.660000
  Q      5.470000    4.220000    8.550000
  Q      5.630000    5.360000    7.640000
  Q      5.180000    4.850000    8.070000
  Q     11.900000   19.190000   16.870000
  Q     11.010000   17.880000   16.930000
  Q     11.720000   18.330000   17.050000
  Q     11.410000   18.340000    7.430000
  Q     11.400000   19.610000    8.440000
  Q     11.590000   19.150000    7.750000
  Q      0.780000    7.330000    6.490000
  Q      0.420000    8.230000    5.260000
  Q      0.710000    7.550000    5.650000
  Q     12.560000   14.760000    1.980000
  Q     11.430000   13.800000    2.320000
  Q     11.840000   14.320000    1.840000
  Q      3.260000   17.690000   11.610000
  Q      3.960000   16.660000   12.520000
  Q      3.870000   17.150000   11.840000
  Q     18.970000   10.690000    6.480000
  Q     18.650000   11.760000    7.440000
  Q     19.130000   11.180000    7.120000
  Q     14.140000    6.100000   10.060000
  Q     13.320000    5.090000   10.790000
  Q     13.550000    5.850000   10.600000
  Q     12.740000   17.570000   18.830000
  Q     12.180000   16.590000   19.920000
  Q     12.720000   17.160000   19.570000
  Q      4.080000   14.150000   13.890000
  Q      4.740000   15.180000   14.720000
  Q      4.130000   14.920000   14.240000
  Q      5.490000   17.690000    7.300000
  Q      7.040000   17.370000    7.620000
  Q      6.160000   17.270000    7.630000
  Q      7.520000    3.030000    5.100000
  Q      6.010000    2.680000    5.120000
  Q      6.800000    2.530000    4.990000
  Q      7.310000   16.340000   13.500000
  Q      6.510000   16.830000   14.660000
  Q      7.010000   16.300000   14.250000
  Q      7.580000    9.260000    4.710000
  Q      8.690000    9.940000    4.010000
  Q      8.040000    9.920000    4.510000
  Q     10.050000   10.310000    2.050000
  Q     10.440000    9.260000    3.100000
  Q     10.100000    9.980000    2.830000
  Q      6.500000    2.090000   16.820000
  Q      6.850000    2.570000   15.420000
  Q      6.610000    2.650000   16.220000
  Q     13.040000   19.370000   12.100000
  Q     12.850000   20.710000   12.910000
  Q     12.680000   20.110000   12.340000
  Q     11.730000    8.340000   20.470000
  Q     11.170000    9.680000   20.360000
  Q     11.400000    9.010000   20.780000
  Q     17.130000    5.890000   12.930000
  Q     16.420000    4.580000   13.390000
  Q     16.810000    5.130000   12.860000
  Q      9.490000    9.840000   18.710000
  Q      9.520000   11.390000   19.120000
  Q      9.810000   10.580000   19.030000
  Q     19.150000   11.320000   17.650000
  Q     18.910000   10.180000   16.690000
  Q     19.240000   10.900000   16.930000
  Q      3.000000    9.070000    3.890000
  Q      2.520000    7.710000    4.310000
  Q      2.840000    8.240000    3.800000
  Q     10.110000    2.400000    3.560000
  Q     10.320000    1.090000    4.390000
  Q     10.480000    1.660000    3.790000
  Q     17.440000   13.410000   17.640000
  Q     16.750000   12.200000   18.130000
  Q     16.800000   12.880000   17.680000
  Q     17.320000   20.790000    8.260000
  Q     16.170000   19.900000    8.750000
  Q     16.980000   20.180000    8.720000
  Q      4.560000   10.220000   10.560000
  Q      3.910000    9.390000    9.390000
  Q      4.460000    9.590000    9.980000
  Q     12.410000    8.420000   17.930000
  Q     12.760000    8.090000   16.530000
  Q     12.470000    8.590000   17.110000
  Q      2.340000   16.020000   14.120000
  Q      1.260000   16.740000   14.890000
  Q      1.660000   16.490000   14.200000
  Q      0.500000    9.950000   12.670000
  Q      0.900000   10.380000   14.040000
  Q      1.030000   10.290000   13.220000
  Q     10.560000   19.710000    5.160000
  Q      9.800000   18.360000    4.730000
  Q      9.930000   19.240000    4.780000
  Q     17.510000   20.320000   12.130000
  Q     16.550000   20.680000   11.130000
  Q     16.790000   20.260000   11.780000
  Q     16.260000    5.480000   15.790000
  Q     16.510000    6.980000   15.380000
  Q     16.530000    6.290000   15.890000
  Q     20.520000    8.390000   10.090000
  Q     22.030000    8.430000   10.100000
  Q     21.250000    8.120000   10.280000
  Q     19.850000   13.430000   13.850000
  Q     19.180000   13.570000   12.490000
  Q     19.500000   13.870000   13.200000
  Q      9.010000   16.580000   15.090000
  Q      9.730000   17.840000   14.410000
  Q      9.660000   17.140000   14.950000
  Q      5.980000   11.580000    5.900000
  Q      5.930000   10.360000    6.850000
  Q      5.850000   11.180000    6.650000
  Q      6.740000   13.070000    1.570000
  Q      5.670000   12.020000    1.770000
  Q      6.060000   12.640000    1.350000
  Q      5.070000   18.020000   16.980000
  Q      4.850000   18.850000   15.640000
  Q      5.290000   18.380000   16.240000
  Q     14.250000    1.320000    9.920000
  Q     13.350000    1.380000    8.710000
  Q     13.510000    1.270000    9.500000
  Q     12.360000   16.620000    6.510000
  Q     11.780000   15.800000    7.500000
  Q     11.730000   16.340000    6.940000
  Q     12.490000    5.460000   14.750000
  Q     12.190000    3.850000   15.060000
  Q     12.660000    4.580000   14.870000
  Q     17.370000   16.330000   14.110000
  Q     17.780000   15.200000   13.390000
  Q     17.290000   15.830000   13.480000
  Q      2.200000    5.870000   14.920000
  Q      2.670000    4.400000   14.860000
  Q      2.660000    5.190000   15.190000
  Q      0.140000    6.630000   11.460000
  Q      1.220000    5.680000   11.990000
  Q      0.410000    5.910000   11.850000
  Q     15.150000   18.350000   14.660000
  Q     15.840000   19.170000   13.560000
  Q     15.730000   18.860000   14.360000
  Q     16.290000   14.190000    2.090000
  Q     16.960000   15.130000    3.040000
  Q     16.560000   14.430000    2.840000
  Q      7.140000    9.360000   18.080000
  Q      8.170000    8.800000   17.020000
  Q      7.880000    9.000000   17.790000
  Q      6.510000    6.320000   15.480000
  Q      6.250000    5.550000   14.160000
  Q      6.640000    6.100000   14.670000
  Q     14.270000    8.860000   12.150000
  Q     13.760000    7.350000   11.960000
  Q     13.980000    8.050000   12.390000
  Q      6.420000   17.730000    9.450000
  Q      5.680000   17.450000   10.740000
  Q      6.340000   17.740000   10.270000
  Q      7.470000   14.200000   11.560000
  Q      5.900000   13.930000   11.650000
  Q      6.760000   13.780000   11.720000
  Q     11.110000   20.880000   10.700000
  Q     11.750000   21.990000    9.880000
  Q     11.110000   21.460000   10.090000
  Q     10.860000    2.130000   13.720000
  Q     10.310000    2.820000   15.020000
  Q     10.790000    2.300000   14.560000
  Q      7.540000   14.820000   21.170000
  Q      6.480000   14.020000   20.410000
  Q      7.180000   14.470000   20.520000
  Q     14.970000   14.270000   16.860000
  Q     14.550000   15.720000   16.990000
  Q     14.410000   14.890000   16.990000
  Q      3.890000    5.420000    9.240000
  Q      3.220000    5.280000   10.700000
  Q      3.250000    5.400000    9.840000
  Q     10.560000   15.750000    2.110000
  Q     10.400000   17.120000    2.280000
  Q     10.090000   16.390000    2.260000
  Q     10.220000   16.400000   20.670000
  Q     10.960000   15.240000   21.520000
  Q     10.710000   15.670000   20.790000
  Q     12.880000    3.920000    1.720000
  Q     12.000000    3.240000    2.860000
  Q     12.730000    3.460000    2.450000
  Q      8.940000   12.660000    1.720000
  Q      8.430000   14.010000    2.330000
  Q      8.540000   13.160000    2.300000
  Q     18.500000   10.620000   19.920000
  Q     18.630000   12.180000   19.900000
  Q     18.530000   11.400000   19.570000
  Q      3.970000    2.050000    6.400000
  Q      4.200000    3.480000    7.030000
  Q      4.000000    2.910000    6.430000
  Q     11.110000   11.290000    4.130000
  Q     11.100000   12.300000    5.230000
  Q     11.460000   11.780000    4.690000
  Q      8.590000    1.750000    8.940000
  Q      9.990000    1.260000    8.940000
  Q      9.360000    1.770000    8.690000
  Q      6.640000   11.830000   21.320000
  Q      6.750000   11.280000   19.900000
  Q      6.950000   11.370000   20.720000
  Q     16.900000    6.450000    8.660000
  Q     18.330000    5.800000    9.220000
  Q     17.800000    6.300000    8.740000
  Q      9.900000    6.670000   17.960000
  Q      9.310000    6.520000   19.330000
  Q      9.940000    6.440000   18.770000
  Q     14.850000   11.530000   20.440000
  Q     14.530000   10.250000   21.380000
  Q     15.000000   10.910000   21.080000
  Q     17.860000    7.500000   16.980000
  Q     17.660000    8.670000   18.050000
  Q     18.130000    8.150000   17.500000
  Q      8.180000   19.430000   17.570000
  Q      7.000000   19.460000   16.600000
  Q      7.690000   19.800000   17.020000
  Q     12.730000    7.680000    4.440000
  Q     13.140000    8.010000    5.810000
  Q     12.690000    7.610000    5.270000
  Q      6.860000   19.810000   11.870000
  Q      8.030000   20.000000   10.920000
  Q      7.540000   20.210000   11.570000
  Q     12.600000   14.090000   18.220000
  Q     11.380000   14.580000   19.150000
  Q     11.810000   14.070000   18.610000
  Q     21.900000   10.520000    9.640000
  Q     22.470000   11.120000   10.970000
  Q     21.860000   10.810000   10.440000
  Q     16.610000    4.120000   10.840000
  Q     17.940000    3.440000   10.480000
  Q     17.090000    3.610000   10.390000
  Q      9.000000   -0.520000    6.350000
  Q      9.390000    0.810000    6.910000
  Q      9.490000    0.140000    6.430000
  Q     10.210000   11.750000   -0.220000
  Q      8.690000   11.460000   -0.300000
  Q      9.420000   11.650000    0.120000
  Q     12.130000   12.780000   21.600000
  Q     11.450000   12.820000   20.180000
  Q     11.830000   12.460000   20.880000
  Q     20.110000   11.200000   11.640000
  Q     18.610000   11.630000   11.750000
  Q     19.320000   11.160000   11.940000
  Q     10.230000   16.640000    5.620000
  Q      9.560000   16.150000    4.230000
  Q      9.670000   16.650000    4.960000
  Q      8.740000    3.590000    7.260000
  Q      9.680000    4.380000    6.440000
  Q      8.930000    4.080000    6.640000
  Q      6.270000   16.000000   19.380000
  Q      5.450000   17.390000   19.190000
  Q      5.920000   16.680000   18.950000
  Q      9.210000   19.720000   12.910000
  Q     10.750000   19.630000   13.080000
  Q      9.920000   19.350000   13.150000
  Q      3.880000    2.070000   11.500000
  Q      4.310000    0.720000   12.050000
  Q      4.290000    1.560000   12.020000
  Q      0.590000   15.380000   12.710000
  Q     -0.650000   14.560000   12.330000
  Q      0.170000   14.730000   12.340000
  Q     13.960000    4.740000   18.330000
  Q     13.570000    4.420000   16.860000
  Q     13.560000    4.340000   17.700000
  Q     17.110000    8.580000   13.720000
  Q     15.740000    8.050000   13.250000
  Q     16.520000    7.970000   13.590000
  Q     14.730000    4.040000   14.820000
  Q     15.670000    2.930000   15.410000
  Q     15.390000    3.730000   15.310000
  Q     14.920000   15.270000    2.950000
  Q     14.450000   16.690000    2.970000
  Q     14.370000   15.870000    2.930000
  Q      3.560000   15.870000    8.320000
  Q      2.290000   16.720000    7.990000
  Q      2.730000   16.040000    8.200000
  Q     16.630000    3.710000    8.360000
  Q     16.640000    3.740000    6.870000
  Q     16.290000    3.580000    7.640000
  Q      9.620000    6.860000    0.410000
  Q     10.140000    8.260000    0.420000
  Q      9.610000    7.660000    0.630000
  Q      3.160000    6.450000   12.670000
  Q      3.900000    5.230000   12.530000
  Q      3.210000    5.680000   12.460000
  Q      2.500000    3.490000    9.830000
  Q      1.990000    2.050000    9.690000
  Q      2.380000    2.680000   10.060000
  Q      7.500000    7.400000    7.610000
  Q      7.980000    5.910000    7.100000
  Q      7.410000    6.560000    7.330000
  Q      4.070000   10.830000    4.020000
  Q      3.110000   10.780000    5.240000
  Q      3.330000   10.820000    4.430000
  Q     18.200000    7.980000   10.240000
  Q     18.700000    9.070000   11.240000
  Q     18.560000    8.730000   10.470000
  Q      6.490000   11.720000   12.210000
  Q      6.010000   10.250000   12.600000
  Q      5.940000   11.060000   12.310000
  Q      8.140000   16.880000   11.100000
  Q      9.210000   16.170000   12.010000
  Q      8.420000   16.350000   11.710000
  Q      7.190000   12.790000    4.250000
  Q      6.860000   13.640000    5.340000
  Q      6.660000   13.250000    4.650000
  Q     12.410000   20.120000    6.240000
  Q     11.770000   21.440000    5.900000
  Q     12.250000   20.800000    5.760000
  Q      5.170000    5.410000   17.590000
  Q      5.960000    6.650000   17.870000
  Q      5.810000    5.960000   17.450000
  Q     15.770000    6.080000   19.640000
  Q     15.940000    6.070000   18.100000
  Q     15.510000    6.050000   18.840000
  Q     17.190000   17.150000   16.340000
  Q     17.400000   18.030000   15.130000
  Q     17.580000   17.400000   15.640000
  Q      8.190000   13.360000   19.230000
  Q      8.880000   13.590000   17.810000
  Q      8.550000   13.130000   18.500000
  Q     16.310000    4.320000    5.150000
  Q     17.520000    3.630000    4.630000
  Q     17.110000    4.220000    5.070000
  Q     15.200000   10.270000    3.570000
  Q     16.630000   10.440000    3.930000
  Q     15.970000   10.030000    3.630000
  Q     14.150000    4.280000    3.870000
  Q     14.080000    5.670000    4.460000
  Q     14.310000    4.870000    4.450000
  Q     18.800000   15.440000    9.130000
  Q     17.540000   16.130000    9.880000
  Q     17.980000   15.590000    9.380000
  Q     20.650000    9.910000    8.050000
  Q     21.780000   10.130000    6.970000
  Q     21.460000    9.990000    7.740000
  Q      2.910000   10.660000    7.340000
  Q      1.970000    9.510000    7.100000
  Q      2.670000    9.960000    6.960000
  Q      3.480000   13.320000    7.350000
  Q      2.570000   12.930000    6.140000
  Q      2.860000   12.910000    6.930000
  Q      4.220000    6.670000    3.370000
  Q      4.480000    5.170000    3.710000
  Q      4.690000    5.950000    3.460000
  Q     15.810000    0.690000   11.730000
  Q     16.310000    1.850000   10.910000
  Q     15.930000    1.110000   11.010000
  Q      2.620000    8.100000   10.400000
  Q      2.240000    7.400000    9.070000
  Q      2.220000    8.000000    9.660000
  Q      5.600000    9.910000    1.940000
  Q      6.160000   10.300000    3.310000
  Q      5.570000   10.240000    2.720000
  Q      9.420000    3.990000    1.940000
  Q      9.100000    4.870000    3.090000
  Q      9.190000    4.150000    2.710000
  Q      8.950000   13.960000    6.770000
  Q      8.310000   15.370000    6.290000
  Q      8.300000   14.530000    6.510000
  Q     19.110000   14.730000   19.060000
  Q     19.560000   14.690000   17.550000
  Q     19.010000   14.760000   18.190000
  Q     15.830000    8.950000    5.880000
  Q     17.080000    8.090000    6.180000
  Q     16.370000    8.500000    6.380000
  Q      5.380000   13.040000    7.770000
  Q      5.970000   14.440000    7.740000
  Q      5.380000   13.860000    7.930000
  Q     14.700000   15.150000    6.030000
  Q     13.980000   15.290000    4.650000
  Q     14.190000   14.930000    5.400000
  Q     14.230000    2.610000    7.190000
  Q     13.920000    1.220000    6.590000
  Q     13.720000    1.970000    6.970000
  Q      4.580000   14.080000   17.150000
  Q      5.620000   15.180000   17.500000
  Q      5.290000   14.540000   17.070000
  Q     20.210000   12.320000   15.880000
  Q     21.620000   12.460000   15.330000
  Q     20.840000   12.730000   15.540000
  Q     13.490000   16.480000   14.050000
  Q     12.980000   17.190000   15.410000
  Q     13.500000   17.020000   14.750000
  Q      4.480000    8.400000   13.390000
  Q      3.190000    9.110000   13.360000
  Q      3.660000    8.450000   13.360000

----------------------------
CARTESIAN COORDINATES (A.U.)
----------------------------
  NO LB      ZA    FRAG     MASS         X           Y           Z
   0 C     6.0000    0    12.011   20.938166   23.375912   22.714508
   1 H     1.0000    0     1.008   20.692501   21.977515   24.207392
   2 H     1.0000    0     1.008   19.974405   25.114460   23.205837
   3 C     6.0000    0    12.011   19.709844   22.563330   20.276761
   4 H     1.0000    0     1.008   17.668939   22.506638   20.862577
   5 H     1.0000    0     1.008   19.823227   24.207392   18.991748
   6 C     6.0000    0    12.011   20.824782   20.068892   19.048439
   7 H     1.0000    0     1.008   22.808994   20.446837   19.161823
   8 H     1.0000    0     1.008   20.465734   20.125583   16.931946
   9 C     6.0000    0    12.011   20.125583   17.517761   20.144481
  10 H     1.0000    0     1.008   21.070446   17.139816   21.958618
  11 H     1.0000    0     1.008   20.579118   16.043775   18.727186
  12 O     8.0000    0    15.999   17.555556   17.234302   20.635809
  13 H     1.0000    0     1.008   16.591795   17.290994   19.142926
  14 O     8.0000    0    15.999   23.697166   23.810549   22.449946
  15 H     1.0000    0     1.008   24.547542   22.525536   23.432604
  16 O     8.0000    0    15.999   17.442172   13.058008   23.848344
  17 H     1.0000    0     1.008   17.064227   14.399713   22.676714
  18 H     1.0000    0     1.008   19.180720   13.606028   24.490851
  19 O     8.0000    0    15.999   24.434159   27.854563   19.294104
  20 H     1.0000    0     1.008   24.849899   26.928597   17.782323
  21 H     1.0000    0     1.008   23.810549   26.475063   20.314556
  22 O     8.0000    0    15.999   29.404139   23.886138   23.886138
  23 H     1.0000    0     1.008   29.668700   23.470399   25.624686
  24 H     1.0000    0     1.008   27.835666   24.887693   24.056214
  25 O     8.0000    0    15.999   17.631145   22.601125   27.590002
  26 H     1.0000    0     1.008   18.462624   22.506638   29.252961
  27 H     1.0000    0     1.008   15.854802   23.243631   27.627796
  28 O     8.0000    0    15.999   26.493960   20.768090   16.138261
  29 H     1.0000    0     1.008   28.100228   19.955508   16.610693
  30 H     1.0000    0     1.008   26.380577   20.616912   14.267432
  31 O     8.0000    0    15.999   20.749193   10.960412   16.988638
  32 H     1.0000    0     1.008   22.298768   11.281665   17.839015
  33 H     1.0000    0     1.008   21.202727    9.845473   15.609138
  34 O     8.0000    0    15.999   21.032652   29.895467   24.642029
  35 H     1.0000    0     1.008   22.053104   28.667145   25.473508
  36 H     1.0000    0     1.008   20.182275   30.821433   26.134912
  37 O     8.0000    0    15.999   24.736515   25.322330   14.343021
  38 H     1.0000    0     1.008   25.832556   24.075111   15.174501
  39 H     1.0000    0     1.008   25.265638   25.794762   12.604473
  40 O     8.0000    0    15.999   15.741419   16.837460   28.572659
  41 H     1.0000    0     1.008   16.308337   18.368138   27.684488
  42 H     1.0000    0     1.008   15.646932   15.722521   27.174262
  43 O     8.0000    0    15.999   19.256309   15.136706   13.398158
  44 H     1.0000    0     1.008   20.068892   14.154049   14.739864
  45 H     1.0000    0     1.008   20.012200   14.248535   11.924172
  46 O     8.0000    0    15.999   33.769406   24.812104   21.164933
  47 H     1.0000    0     1.008   33.901687   26.361680   20.106686
  48 H     1.0000    0     1.008   32.125344   24.944385   21.920823
  49 O     8.0000    0    15.999   26.758522   28.629351   24.434159
  50 H     1.0000    0     1.008   28.440378   29.082885   24.831001
  51 H     1.0000    0     1.008   26.323885   28.591556   22.638919
  52 O     8.0000    0    15.999   17.536659   27.287645   31.010406
  53 H     1.0000    0     1.008   16.213850   26.777419   29.914365
  54 H     1.0000    0     1.008   19.010645   27.797871   30.027748
  55 O     8.0000    0    15.999   22.355460   26.777419   28.515967
  56 H     1.0000    0     1.008   23.961727   27.306543   29.120680
  57 H     1.0000    0     1.008   22.336563   24.944385   28.629351
  58 O     8.0000    0    15.999   21.316111   31.747399   20.106686
  59 H     1.0000    0     1.008   21.202727   31.293865   21.864131
  60 H     1.0000    0     1.008   21.883029   30.178926   19.464179
  61 O     8.0000    0    15.999   13.265877   16.780768   16.913049
  62 H     1.0000    0     1.008   11.621816   17.309891   17.536659
  63 H     1.0000    0     1.008   13.889487   18.065782   15.798110
  64 O     8.0000    0    15.999   19.407487   23.734960   13.530439
  65 H     1.0000    0     1.008   21.070446   23.394810   14.210741
  66 H     1.0000    0     1.008   18.235857   22.506638   14.097357
  67 O     8.0000    0    15.999   21.316111   22.298768   31.558426
  68 H     1.0000    0     1.008   21.164933   23.564885   32.862337
  69 H     1.0000    0     1.008   20.371248   21.070446   32.484392
  70 O     8.0000    0    15.999   28.723837   19.161823   21.750748
  71 H     1.0000    0     1.008   29.687598   18.916159   20.163378
  72 H     1.0000    0     1.008   29.271858   20.616912   22.638919
  73 O     8.0000    0    15.999   30.632461   21.807440   28.572659
  74 H     1.0000    0     1.008   31.180481   23.111351   29.914365
  75 H     1.0000    0     1.008   29.252961   21.032652   29.423036
  76 O     8.0000    0    15.999   17.045330    8.314795   20.503529
  77 H     1.0000    0     1.008   16.761871    9.410836   21.883029
  78 H     1.0000    0     1.008   18.198063    9.316350   19.369693
  79 O     8.0000    0    15.999   13.152494   25.227844   28.213611
  80 H     1.0000    0     1.008   13.020213   26.682933   26.966392
  81 H     1.0000    0     1.008   12.094247   25.870351   29.555317
  82 O     8.0000    0    15.999   16.516206   19.369693   14.002871
  83 H     1.0000    0     1.008   16.157158   19.747638   12.283220
  84 H     1.0000    0     1.008   17.895706   18.216960   14.002871
  85 O     8.0000    0    15.999   26.966392   19.728741   10.998206
  86 H     1.0000    0     1.008   28.156919   21.013755   10.469083
  87 H     1.0000    0     1.008   25.284536   20.087789   10.223418
  88 O     8.0000    0    15.999   32.144242   24.018419   15.080015
  89 H     1.0000    0     1.008   31.615118   22.582227   16.289439
  90 H     1.0000    0     1.008   31.822988   25.700275   15.873700
  91 O     8.0000    0    15.999   31.596221   19.161823   16.761871
  92 H     1.0000    0     1.008   31.520632   18.368138   15.117809
  93 H     1.0000    0     1.008   33.259180   18.576008   17.461069
  94 O     8.0000    0    15.999   11.943069   15.760316   24.018419
  95 H     1.0000    0     1.008   12.850138   14.248535   24.245186
  96 H     1.0000    0     1.008   11.621816   15.741419   22.204282
  97 O     8.0000    0    15.999   22.279871   13.473747   26.853008
  98 H     1.0000    0     1.008   21.202727   14.097357   28.213611
  99 H     1.0000    0     1.008   23.697166   14.513097   26.380577
 100 Q     0.6645    0     0.000    5.574692   22.827892   24.868796
 101 Q     0.6645    0     0.000    8.352590   22.185385   25.360125
 102 Q    -1.3290    0     0.000    6.954192   22.827892   25.719173
 103 Q     0.6645    0     0.000   14.758761   16.157158    1.851932
 104 Q     0.6645    0     0.000   13.587131   18.084679    0.075589
 105 Q    -1.3290    0     0.000   13.492645   16.856357    1.096041
 106 Q     0.6645    0     0.000   27.060878   39.703146   17.461069
 107 Q     0.6645    0     0.000   26.890803   37.000838   18.651597
 108 Q    -1.3290    0     0.000   27.004186   38.096879   17.423275
 109 Q     0.6645    0     0.000   26.399474   18.840570   32.087550
 110 Q     0.6645    0     0.000   25.246741   21.183830   31.407248
 111 Q    -1.3290    0     0.000   26.493960   20.257864   31.615118
 112 Q     0.6645    0     0.000   27.457721   35.073317    9.373042
 113 Q     0.6645    0     0.000   29.971056   36.093769    8.314795
 114 Q    -1.3290    0     0.000   28.478173   35.545749    8.239206
 115 Q     0.6645    0     0.000   14.739864   36.566201   14.324124
 116 Q     0.6645    0     0.000   16.931946   35.167803   12.774549
 117 Q    -1.3290    0     0.000   15.835905   35.413468   13.965076
 118 Q     0.6645    0     0.000   30.840331    1.625164   27.117570
 119 Q     0.6645    0     0.000   28.421481    2.343260   25.586892
 120 Q    -1.3290    0     0.000   29.971056    2.475541   26.021529
 121 Q     0.6645    0     0.000   35.130009   19.766535   25.379022
 122 Q     0.6645    0     0.000   32.919029   19.785433   27.060878
 123 Q    -1.3290    0     0.000   34.185146   19.180720   26.475063
 124 Q     0.6645    0     0.000   30.084440   17.631145   38.059084
 125 Q     0.6645    0     0.000   29.725392   14.985528   37.038632
 126 Q    -1.3290    0     0.000   30.122235   16.516206   36.963043
 127 Q     0.6645    0     0.000   40.874776   18.273652   30.802536
 128 Q     0.6645    0     0.000   38.871667   18.783878   29.252961
 129 Q    -1.3290    0     0.000   40.213372   18.160268   29.479728
 130 Q     0.6645    0     0.000   17.158713   -1.209425   30.726947
 131 Q     0.6645    0     0.000   18.764981    1.039349   29.649803
 132 Q    -1.3290    0     0.000   18.122474    0.056692   30.764741
 133 Q     0.6645    0     0.000   17.763426   13.265877    4.629829
 134 Q     0.6645    0     0.000   16.440617   13.246980    7.048678
 135 Q    -1.3290    0     0.000   17.517761   12.812343    6.103815
 136 Q     0.6645    0     0.000    7.540007   28.799426   20.654707
 137 Q     0.6645    0     0.000    9.240761   27.249851   18.916159
 138 Q    -1.3290    0     0.000    8.333692   27.514413   20.201172
 139 Q     0.6645    0     0.000   14.380816   33.259180   34.317427
 140 Q     0.6645    0     0.000   16.950843   32.559981   33.259180
 141 Q    -1.3290    0     0.000   16.005980   33.240283   34.298529
 142 Q     0.6645    0     0.000   11.470638   17.820117   28.893913
 143 Q     0.6645    0     0.000    8.768329   16.931946   29.989954
 144 Q    -1.3290    0     0.000   10.110035   17.801220   29.838776
 145 Q     0.6645    0     0.000    4.440856   21.883029   29.120680
 146 Q     0.6645    0     0.000    2.947973   21.013755   31.388351
 147 Q    -1.3290    0     0.000    3.307021   21.977515   30.160029
 148 Q     0.6645    0     0.000   11.924172    4.856596   19.690946
 149 Q     0.6645    0     0.000   13.587131    7.010884   19.936611
 150 Q    -1.3290    0     0.000   12.226528    6.406172   19.728741
 151 Q     0.6645    0     0.000   27.778974   33.353666   20.768090
 152 Q     0.6645    0     0.000   24.925488   32.919029   20.314556
 153 Q    -1.3290    0     0.000   26.267193   33.750509   20.711398
 154 Q     0.6645    0     0.000    6.179404   29.971056   11.338357
 155 Q     0.6645    0     0.000    4.592035   28.723837    9.089583
 156 Q    -1.3290    0     0.000    5.536898   29.857673    9.826576
 157 Q     0.6645    0     0.000    5.272336   24.642029   20.257864
 158 Q     0.6645    0     0.000    2.683411   25.001077   21.939720
 159 Q    -1.3290    0     0.000    3.836144   24.150700   21.108241
 160 Q     0.6645    0     0.000   23.810549    5.158952   22.657816
 161 Q     0.6645    0     0.000   24.339673    7.558905   24.094008
 162 Q    -1.3290    0     0.000   24.679823    6.368377   23.130248
 163 Q     0.6645    0     0.000   17.933501   35.375673   17.498864
 164 Q     0.6645    0     0.000   19.558665   35.224495   19.936611
 165 Q    -1.3290    0     0.000   18.368138   35.696927   18.991748
 166 Q     0.6645    0     0.000   11.754097   13.322569    8.220309
 167 Q     0.6645    0     0.000   13.322569   13.303672   10.601364
 168 Q    -1.3290    0     0.000   13.020213   13.681617    9.070685
 169 Q     0.6645    0     0.000   31.256070   33.315872   34.411913
 170 Q     0.6645    0     0.000   29.139577   35.035523   33.278077
 171 Q    -1.3290    0     0.000   30.027748   33.731611   33.429255
 172 Q     0.6645    0     0.000   32.465495   31.766296   22.204282
 173 Q     0.6645    0     0.000   32.371009   34.468605   21.240522
 174 Q    -1.3290    0     0.000   32.182036   32.937927   21.089344
 175 Q     0.6645    0     0.000   28.062433   10.563569   14.475302
 176 Q     0.6645    0     0.000   28.667145   13.454850   14.456405
 177 Q    -1.3290    0     0.000   28.364789   12.037555   15.117809
 178 Q     0.6645    0     0.000   35.016625   12.528884   12.793446
 179 Q     0.6645    0     0.000   33.769406   11.659610   10.336802
 180 Q    -1.3290    0     0.000   34.676475   12.585576   11.224973
 181 Q     0.6645    0     0.000   11.130487   19.974405   32.522187
 182 Q     0.6645    0     0.000   12.698960   21.958618   34.015070
 183 Q    -1.3290    0     0.000   11.584021   20.824782   33.826098
 184 Q     0.6645    0     0.000   26.739625   14.664275    3.477096
 185 Q     0.6645    0     0.000   28.138022   15.665830    5.706973
 186 Q    -1.3290    0     0.000   27.306543   14.569788    4.875493
 187 Q     0.6645    0     0.000   12.302117    2.210980   25.341227
 188 Q     0.6645    0     0.000   14.928836    3.099151   24.490851
 189 Q    -1.3290    0     0.000   13.530439    3.250329   25.246741
 190 Q     0.6645    0     0.000    6.217199   37.473269   17.895706
 191 Q     0.6645    0     0.000    8.579357   35.734721   17.517761
 192 Q    -1.3290    0     0.000    7.823466   37.076427   17.895706
 193 Q     0.6645    0     0.000   16.761871   12.207631   29.063988
 194 Q     0.6645    0     0.000   18.141371   10.204521   30.537974
 195 Q    -1.3290    0     0.000   17.857912   11.697405   30.046646
 196 Q     0.6645    0     0.000   14.267432   13.530439   39.778735
 197 Q     0.6645    0     0.000   14.078460   14.286330   36.811865
 198 Q    -1.3290    0     0.000   14.550891   13.417056   38.115776
 199 Q     0.6645    0     0.000   30.594666   24.698721   11.262768
 200 Q     0.6645    0     0.000   29.819878   25.001077    8.636048
 201 Q    -1.3290    0     0.000   30.178926   24.131803    9.883268
 202 Q     0.6645    0     0.000   27.041981   22.336563   34.393016
 203 Q     0.6645    0     0.000   24.963282   22.393255   36.282742
 204 Q    -1.3290    0     0.000   26.342782   22.827892   35.659132
 205 Q     0.6645    0     0.000   22.412152   12.491090   36.471714
 206 Q     0.6645    0     0.000   25.530200   12.831240   36.282742
[...]
 341   Q   :    0.296482112    0.034924079    0.126468473
 342   Q   :   -0.077203194    0.175615803   -0.248973100
 343   Q   :   -0.222429454   -0.199142056    0.121498756
 344   Q   :   -0.087713698   -0.245048666   -0.037229310
 345   Q   :   -0.012072139    0.215531768   -0.154851909
 346   Q   :    0.100699369    0.031793704    0.193311785
 347   Q   :   -0.284085519    0.121204428   -0.094790815
 348   Q   :    0.255940112    0.113653377   -0.071997313
 349   Q   :    0.038272491   -0.233838460    0.163428632
 350   Q   :    0.101571558   -0.154691532    0.192646267
 351   Q   :   -0.106920075   -0.115275008   -0.242811307
 352   Q   :    0.014544898    0.269301444    0.048213379
 353   Q   :   -0.197135559   -0.169930357    0.036719568
 354   Q   :    0.014162633    0.176876666   -0.150156746
 355   Q   :    0.177756814   -0.009412869    0.132796275
 356   Q   :    0.047993386    0.110037275   -0.245659655
 357   Q   :    0.038115597   -0.286814815    0.053971326
 358   Q   :   -0.083932359    0.164761960    0.191298408
 359   Q   :    0.244265077    0.143980638    0.085074937
 360   Q   :   -0.117146756   -0.211520599    0.150786814
 361   Q   :   -0.133685622    0.079330335   -0.242821205
 362   Q   :   -0.089520013   -0.113475566    0.252700599
 363   Q   :   -0.144562793    0.140916066   -0.173463324
 364   Q   :    0.224466006   -0.028531991   -0.076938602
 365   Q   :    0.237930811    0.023822667    0.116725946
 366   Q   :   -0.050906680    0.039939036   -0.299467709
 367   Q   :   -0.193412036   -0.066123556    0.186320799
 368   Q   :    0.241175601    0.095553313   -0.157335022
 369   Q   :    0.042557419   -0.235130872    0.240608124
 370   Q   :   -0.279972806    0.127071653   -0.075950217
 371   Q   :   -0.045619649    0.223864599   -0.028243895
 372   Q   :   -0.140506708   -0.209022821    0.053451863
 373   Q   :    0.184147178   -0.015585804   -0.019029293
 374   Q   :    0.040606323    0.175448488    0.228419660
 375   Q   :    0.189218998   -0.237213811   -0.024734764
 376   Q   :   -0.235268479    0.056390124   -0.202815379
 377   Q   :   -0.155589260    0.212578184   -0.094528695
 378   Q   :   -0.010488624   -0.261407294   -0.118456806
 379   Q   :    0.163168541    0.042744588    0.209432332
 380   Q   :   -0.073695876    0.245897686   -0.128639194
 381   Q   :    0.266713159   -0.056248297    0.037868333
 382   Q   :   -0.201944697   -0.188080211    0.089179144
 383   Q   :   -0.206009631   -0.176574709    0.094283762
 384   Q   :    0.024639165    0.087883084   -0.255445499
 385   Q   :    0.177480823    0.095635675    0.163622287
 386   Q   :   -0.102137245   -0.064450825   -0.273372569
 387   Q   :    0.134127431    0.262925275    0.056016704
 388   Q   :   -0.020855478   -0.203522238    0.218503346
 389   Q   :   -0.232400960    0.096283198    0.082549515
 390   Q   :    0.086011495   -0.063217939   -0.252207778
 391   Q   :    0.145602164   -0.042478914    0.170760807
 392   Q   :   -0.047187631    0.075580391    0.261374420
 393   Q   :   -0.136595585   -0.176118061   -0.161690088
 394   Q   :    0.184397958    0.107819702   -0.099201662
 395   Q   :    0.071652276    0.208279241   -0.064729953
 396   Q   :   -0.071400118   -0.220471643   -0.143873916
 397   Q   :   -0.010118512    0.008767360    0.210514204
 398   Q   :    0.013274204   -0.003969656   -0.299776553
 399   Q   :   -0.214235198   -0.096074309    0.127138601
 400   Q   :    0.205207315    0.109409709    0.174049711
 401   Q   :    0.245871324    0.149161345   -0.059516472
 402   Q   :   -0.244146977    0.051807032   -0.017627792
 403   Q   :    0.008862497   -0.201950973    0.077469306
 404   Q   :    0.022220901   -0.194741168    0.215062727
 405   Q   :    0.232628303    0.172560281   -0.059112436
 406   Q   :   -0.257648445    0.024417076   -0.154263733
 407   Q   :    0.026924599   -0.044991614   -0.262996559
 408   Q   :   -0.157798762    0.180607651    0.138989691
 409   Q   :    0.133718307   -0.136561158    0.126088694
 410   Q   :    0.117952520    0.129833176    0.256095027
 411   Q   :   -0.252656912   -0.153267540   -0.024542214
 412   Q   :    0.138794727    0.025811066   -0.222450895
 413   Q   :    0.198557695   -0.200467801   -0.054528911
 414   Q   :    0.062050691    0.280378846   -0.005737560
 415   Q   :   -0.257160830   -0.076136462    0.057728270
 416   Q   :    0.187979966    0.006851097   -0.158360216
 417   Q   :    0.006945393   -0.049588494    0.253914143
 418   Q   :   -0.197786472    0.048033620   -0.094958777
 419   Q   :    0.196486755   -0.227856492   -0.047800457
 420   Q   :    0.158940571    0.291643421    0.006038424
 421   Q   :   -0.360557866   -0.051463935    0.037289325
 422   Q   :   -0.142424276    0.216187178   -0.018863235
 423   Q   :    0.067500429   -0.118877836    0.228130463
 424   Q   :    0.063796785   -0.100361950   -0.195075595
 425   Q   :    0.031806755    0.153047668   -0.232218074
 426   Q   :   -0.240157603   -0.048889763    0.114842606
 427   Q   :    0.201072444   -0.104218654    0.109706490
 428   Q   :    0.131488019   -0.140145674   -0.179767287
 429   Q   :   -0.027131597    0.275971050   -0.004989945
 430   Q   :   -0.097154627   -0.134167618    0.196561495
 431   Q   :   -0.006218609   -0.251846443    0.129091889
 432   Q   :    0.037988574    0.261127104    0.121643543
 433   Q   :   -0.031435553   -0.010963498   -0.238753752
 434   Q   :   -0.002020584   -0.290273779    0.006263152
 435   Q   :    0.069126719    0.163911250    0.209428663
 436   Q   :   -0.073849510    0.118014654   -0.215359662
 437   Q   :   -0.125486747   -0.173583595   -0.206435191
 438   Q   :   -0.132336962    0.180362162    0.171728543
 439   Q   :    0.256008637    0.003025268    0.041840083
 440   Q   :   -0.288448793   -0.019664269    0.094858809
 441   Q   :    0.198032277   -0.186735947    0.096811771
 442   Q   :    0.099054818    0.212575321   -0.187636935
 443   Q   :   -0.140187837    0.198112960    0.223300581
 444   Q   :   -0.080159216   -0.007143641   -0.271656563
 445   Q   :    0.226689577   -0.186966017    0.051855710
 446   Q   :   -0.226994852    0.037674983   -0.008574305
 447   Q   :    0.160344593   -0.161846035    0.159089940
 448   Q   :    0.072926714    0.122562850   -0.143888992
 449   Q   :   -0.022784294    0.087682460   -0.269023078
 450   Q   :   -0.206614945    0.029629602    0.166628848
 451   Q   :    0.227819922   -0.121226393    0.099961630
 452   Q   :   -0.040467706    0.155557309   -0.169079468
 453   Q   :   -0.153448896   -0.222277433    0.086781690
 454   Q   :    0.199577244    0.070766220    0.094261138
 455   Q   :   -0.095103109   -0.190927613   -0.150344752
 456   Q   :   -0.141972071    0.149328629    0.152995681
 457   Q   :    0.247791603    0.042090887   -0.002190806
 458   Q   :    0.168121764   -0.146791980    0.203871132
 459   Q   :   -0.203810871   -0.115595808   -0.115682514
 460   Q   :    0.039847366    0.276171822   -0.089926246
 461   Q   :    0.024757915    0.042090169   -0.294321737
 462   Q   :    0.187733130    0.168532378    0.195853218
 463   Q   :   -0.213891340   -0.208554493    0.100454711
 464   Q   :   -0.236042667   -0.150008152    0.103508067
 465   Q   :    0.153904069   -0.080632592   -0.222640514
 466   Q   :    0.069475624    0.237747856    0.118043679
 467   Q   :    0.226244784    0.010360172   -0.112472482
 468   Q   :   -0.130147943    0.165662951    0.173199893
 469   Q   :   -0.091979138   -0.169850372   -0.067329708
 470   Q   :    0.034041075   -0.094644267   -0.252700644
 471   Q   :    0.209869855    0.100946512    0.162075485
 472   Q   :   -0.237340581   -0.009187150    0.097914581
 473   Q   :   -0.159280635    0.181551245    0.155406179
 474   Q   :    0.267935095   -0.043161937    0.033671257
 475   Q   :   -0.107760215   -0.135328106   -0.193351477
 476   Q   :   -0.198759957   -0.243553431   -0.013233705
 477   Q   :   -0.054492679    0.225717886    0.176241688
 478   Q   :    0.250440546    0.010045488   -0.164422569
 479   Q   :    0.248960500    0.019678496   -0.120164239
 480   Q   :   -0.220770405   -0.070552869   -0.149127552
 481   Q   :   -0.029711029    0.044346409    0.256439649
 482   Q   :    0.097798119    0.134221933    0.255624910
 483   Q   :   -0.119927667    0.121583471   -0.201305933
 484   Q   :    0.013954348   -0.257411497   -0.040861623
 485   Q   :    0.255932782    0.030401282   -0.099591254
 486   Q   :   -0.211208097    0.136420322   -0.053290634
 487   Q   :   -0.036791044   -0.162858264    0.151322707
 488   Q   :    0.173995060   -0.001057693    0.195284861
 489   Q   :   -0.018416776   -0.153789080   -0.192025940
 490   Q   :   -0.167268436    0.137297787   -0.008271935
 491   Q   :   -0.063437635   -0.182671091    0.244790008
 492   Q   :    0.262587807    0.109794583   -0.050655760
 493   Q   :   -0.203317842    0.073846812   -0.193396314
 494   Q   :    0.088859535   -0.197864234    0.135145833
 495   Q   :   -0.143454204    0.212308672    0.077476213
 496   Q   :    0.045309304   -0.011581137   -0.209217510
 497   Q   :   -0.235407140    0.139347798   -0.079691097
 498   Q   :    0.240261239    0.094973134   -0.019619481
 499   Q   :   -0.006789601   -0.224482319    0.098695972
 500   Q   :   -0.138338555    0.157145476   -0.188179303
 501   Q   :    0.005081731   -0.306985074   -0.002685774
 502   Q   :    0.137242023    0.150109043    0.194557459
 503   Q   :    0.116714528    0.213565285    0.118838612
 504   Q   :   -0.301641164   -0.046199975    0.006780633
 505   Q   :    0.175031563   -0.164824282   -0.128953215
 506   Q   :    0.138486937    0.145121218    0.207670775
 507   Q   :    0.012810503    0.040327053   -0.286969272
 508   Q   :   -0.157124666   -0.187463017    0.083952608
 509   Q   :    0.166226116    0.193291702    0.035017003
 510   Q   :   -0.241886681    0.043271163   -0.105529896
 511   Q   :    0.072594458   -0.235131575    0.064217827
 512   Q   :   -0.185872281    0.081016130   -0.152560645
 513   Q   :    0.084738210   -0.274555491    0.030086170
 514   Q   :    0.106215634    0.176720871    0.128576978
 515   Q   :    0.211464887   -0.217020178    0.008673701
 516   Q   :    0.046500021    0.287441356    0.016933422
 517   Q   :   -0.262655834   -0.060757437   -0.039402061
 518   Q   :    0.282050608   -0.031807002    0.031654408
 519   Q   :   -0.139371083    0.262121067   -0.078758069
 520   Q   :   -0.148209946   -0.230451103    0.051484228
 521   Q   :    0.149079174    0.063942767    0.262940151
 522   Q   :    0.114091575    0.055412954   -0.234586758
 523   Q   :   -0.260483018   -0.121617321   -0.025711032
 524   Q   :    0.025019889   -0.284638150   -0.081794574
 525   Q   :    0.211009306    0.213748743   -0.082599610
 526   Q   :   -0.228544542    0.072073103    0.153982286
 527   Q   :   -0.007996646    0.297853138    0.079358577
 528   Q   :    0.249212743   -0.140126219    0.014482434
 529   Q   :   -0.243159643   -0.158093775   -0.087765710
 530   Q   :    0.033444648    0.251857816   -0.089443511
 531   Q   :   -0.145506124   -0.232069907   -0.152414781
 532   Q   :    0.102491442   -0.025931850    0.238544578
 533   Q   :    0.040192509    0.237484707    0.061933718
 534   Q   :    0.166155342   -0.168590475   -0.066708132
 535   Q   :   -0.198066294   -0.062280828    0.015476541
 536   Q   :    0.255368299    0.002987228   -0.116065598
 537   Q   :   -0.061693837   -0.005735382    0.271977521
 538   Q   :   -0.194241770    0.025206762   -0.155468466
 539   Q   :   -0.120295803   -0.237146873   -0.059062174
 540   Q   :    0.032389917    0.094122707    0.253552445
 541   Q   :    0.086562075    0.134128460   -0.178464227
 542   Q   :    0.182186446    0.189075050   -0.022188956
 543   Q   :    0.026730268   -0.252900343    0.094339880
 544   Q   :   -0.201125602    0.061567346   -0.075037723
 545   Q   :   -0.073502135    0.167779135   -0.198048592
 546   Q   :    0.253058708   -0.051666219    0.091427651
 547   Q   :   -0.170484200   -0.113025529    0.097588362
 548   Q   :    0.216791920   -0.182752325   -0.134222895
 549   Q   :    0.082409744    0.126476499    0.251702765
 550   Q   :   -0.302591174    0.054208984   -0.117694489
 551   Q   :    0.046721873   -0.219666863    0.156346013
 552   Q   :   -0.199101755    0.247290648    0.070360540
 553   Q   :    0.163637804   -0.020436153   -0.239132494
 554   Q   :   -0.223593831   -0.162196145    0.065729060
 555   Q   :    0.032093360    0.266176510    0.173566628
 556   Q   :    0.187402641   -0.105920805   -0.229267523
 557   Q   :    0.100970987    0.026088910    0.279502984
 558   Q   :    0.147989789    0.008666942   -0.219088524
 559   Q   :   -0.239683740   -0.034685892   -0.061439042
 560   Q   :   -0.136841221   -0.084082060    0.239107696
 561   Q   :   -0.062147005    0.220000309   -0.179593099
 562   Q   :    0.219293153   -0.138678682   -0.047326236
 563   Q   :   -0.124626309    0.078415110    0.242770446
 564   Q   :    0.079864801    0.126588823   -0.174512855
 565   Q   :    0.041310562   -0.207502385   -0.068390343
 566   Q   :   -0.300500311    0.017461382    0.035556001
 567   Q   :    0.125344478   -0.214132289   -0.154704813
 568   Q   :    0.188968994    0.188846989    0.114132413
 569   Q   :   -0.299431224    0.097243223   -0.013960863
 570   Q   :    0.217029390    0.162246522    0.105237544
 571   Q   :    0.088301641   -0.258612251   -0.093998566
 572   Q   :   -0.054176276   -0.185107880   -0.198560757
 573   Q   :   -0.093169299    0.284423664   -0.006160069
 574   Q   :    0.149125436   -0.093896669    0.204463839
 575   Q   :    0.260850185   -0.041378915   -0.075674734
 576   Q   :   -0.129367612    0.160693052    0.153120436
 577   Q   :   -0.124490199   -0.126754712   -0.082274422
 578   Q   :   -0.246294845   -0.033609591    0.093341855
 579   Q   :    0.105713399    0.048073150   -0.277418002
 580   Q   :    0.140503946   -0.022520715    0.173864196
 581   Q   :    0.072105284    0.239644546    0.144487329
 582   Q   :   -0.251935180   -0.146994744    0.058371082
 583   Q   :    0.176255507   -0.107790343   -0.195489529
 584   Q   :    0.207220879    0.137268683    0.122747625
 585   Q   :   -0.093378549    0.017832973   -0.286110669
 586   Q   :   -0.120166973   -0.149674279    0.161485927
 587   Q   :   -0.151199170    0.211830420   -0.018828582
 588   Q   :   -0.087736670   -0.268005436    0.091320179
 589   Q   :    0.238812211    0.041400453   -0.077437706
 590   Q   :   -0.039547461   -0.140776872    0.255575092
 591   Q   :    0.131975010    0.249481387   -0.014896763
 592   Q   :   -0.088310589   -0.121923421   -0.233841036
 593   Q   :    0.142087377    0.023611911    0.251142169
 594   Q   :    0.011792970   -0.208107482   -0.209316689
 595   Q   :   -0.160308458    0.185098546   -0.044178836
 596   Q   :    0.023567571   -0.101534368   -0.258375854
 597   Q   :    0.213954199    0.019480234    0.201568171
 598   Q   :   -0.243208961    0.076232429    0.054149901
 599   Q   :    0.099150466   -0.041681569   -0.303697679
 600   Q   :   -0.025388436    0.264198896    0.120036953
 601   Q   :   -0.081649115   -0.225828842    0.179250941
 602   Q   :    0.177939794   -0.143149288    0.066275471
 603   Q   :    0.011795427    0.265364308   -0.063667327
 604   Q   :   -0.188165130   -0.115309870    0.003738208
 605   Q   :    0.046150495   -0.017944950    0.271398785
 606   Q   :    0.199595737   -0.030475985   -0.205326180
 607   Q   :   -0.241206176    0.054179579   -0.062235267
 608   Q   :   -0.164375452    0.137329394   -0.163679108
 609   Q   :    0.225758056   -0.124794179   -0.075536937
 610   Q   :   -0.063624021   -0.010651737    0.231481655
 611   Q   :    0.004460607   -0.274604145   -0.058990495
 612   Q   :    0.199314454    0.185284379   -0.066769073
 613   Q   :   -0.201107387    0.093890142    0.126230925
 614   Q   :    0.179245883    0.085640250    0.209650151
 615   Q   :   -0.057091169    0.120958566   -0.230110005
 616   Q   :   -0.123843685   -0.207310478    0.021094395
 617   Q   :    0.172820431    0.205151237    0.066654493
 618   Q   :    0.078391449   -0.238115402   -0.120002846
 619   Q   :   -0.249316240    0.031427205    0.041778704
 620   Q   :   -0.243197042   -0.145173498    0.041231214
 621   Q   :    0.102098449    0.218004887    0.157052720
 622   Q   :    0.135057108   -0.074822189   -0.189207474
 623   Q   :   -0.217634685   -0.150699661    0.118212124
 624   Q   :    0.261219280   -0.103453807   -0.066478347
 625   Q   :   -0.032097819    0.262863562   -0.050895063
 626   Q   :   -0.015114142   -0.155039067   -0.192269354
 627   Q   :   -0.176601860    0.046339282    0.212614425
 628   Q   :    0.184100542    0.105740758   -0.017848133
 629   Q   :    0.294041403   -0.000531100    0.014132049
 630   Q   :   -0.164284476    0.263809604    0.002354194
 631   Q   :   -0.130497765   -0.255160917   -0.009581770

Difference to translation invariance:
           :    0.0003484442    0.0006452745   -0.0002191467

Difference to rotation invariance:
           :   -0.0145196729    0.0119564788    0.0099251292

Norm of the cartesian gradient     ...    6.4185398170
RMS gradient                       ...    0.1475234067
MAX gradient                       ...    0.3605578659

-------
TIMINGS
-------

Total SCF gradient time            ...      177.305 sec

One electron gradient       ....      25.871 sec  ( 14.6%)
RI-J Coulomb gradient       ....       9.531 sec  (  5.4%)
COSX gradient               ....     106.686 sec  ( 60.2%)
XC gradient                 ....      14.726 sec  (  8.3%)

Maximum memory used throughout the entire SCFGRAD-calculation: 720.3 MB

                            ***************************************
                            *     ORCA property calculations      *
                            ***************************************

                                    ---------------------
                                    Active property flags
                                    ---------------------
   (+) Dipole Moment


------------------------------------------------------------------------------
                       ORCA ELECTRIC PROPERTIES CALCULATION
------------------------------------------------------------------------------

Dipole Moment Calculation                       ... on
Quadrupole Moment Calculation                   ... off
Polarizability Calculation                      ... off
GBWName                                         ... final080.orca.gbw
Electron density                                ... final080.orca.scfp
The origin for moment calculation is the CENTER OF MASS  = (22.017128, 21.156782 21.431711)

-------------
DIPOLE MOMENT
-------------
                                X             Y             Z
Electronic contribution:      0.06987      -1.19568       1.77809
Nuclear contribution   :      6.27021       4.66684      -4.21793
                        -----------------------------------------
Total Dipole Moment    :      6.34007       3.47116      -2.43983
                        -----------------------------------------
Magnitude (a.u.)       :      7.62878
Magnitude (Debye)      :     19.39082



--------------------
Rotational spectrum 
--------------------
 
Rotational constants in cm-1:     0.001962     0.001788     0.001350 
Rotational constants in MHz :    58.830294    53.592087    40.459925 

 Dipole components along the rotational axes: 
x,y,z [a.u.] :     7.275270    -2.284825     0.219879 
x,y,z [Debye]:    18.492266    -5.807562     0.558888 

 

Timings for individual modules:

Sum of individual times         ...      760.182 sec (=  12.670 min)
GTO integral calculation        ...       12.475 sec (=   0.208 min)   1.6 %
SCF iterations                  ...      565.859 sec (=   9.431 min)  74.4 %
SCF Gradient evaluation         ...      181.847 sec (=   3.031 min)  23.9 %
                             ****ORCA TERMINATED NORMALLY****
TOTAL RUN TIME: 0 days 0 hours 12 minutes 47 seconds 568 msec
