
                                 *****************
                                 * O   R   C   A *
                                 *****************

                                            #,                                       
                                            ###                                      
                                            ####                                     
                                            #####                                    
                                            ######                                   
                                           ########,                                 
                                     ,,################,,,,,                         
                               ,,#################################,,                 
                          ,,##########################################,,             
                       ,#########################################, ''#####,          
                    ,#############################################,,   '####,        
                  ,##################################################,,,,####,       
                ,###########''''           ''''###############################       
              ,#####''   ,,,,##########,,,,          '''####'''          '####       
            ,##' ,,,,###########################,,,                        '##       
           ' ,,###''''                  '''############,,,                           
         ,,##''                                '''############,,,,        ,,,,,,###''
      ,#''                                            '''#######################'''  
     '                                                          ''''####''''         
             ,#######,   #######,   ,#######,      ##                                
            ,#'     '#,  ##    ##  ,#'     '#,    #''#        ######   ,####,        
            ##       ##  ##   ,#'  ##            #'  '#       #        #'  '#        
            ##       ##  #######   ##           ,######,      #####,   #    #        
            '#,     ,#'  ##    ##  '#,     ,#' ,#      #,         ##   #,  ,#        
             '#######'   ##     ##  '#######'  #'      '#     #####' # '####'        



                  #######################################################
                  #                        -***-                        #
                  #          Department of theory and spectroscopy      #
                  #    Directorship and core code : Frank Neese         #
                  #        Max Planck Institute fuer Kohlenforschung    #
                  #                Kaiser Wilhelm Platz 1               #
                  #                 D-45470 Muelheim/Ruhr               #
                  #                      Germany                        #
                  #                                                     #
                  #                  All rights reserved                #
                  #                        -***-                        #
                  #######################################################


                         Program Version 5.0.3 -  RELEASE  -


 With contributions from (in alphabetic order):
   Daniel Aravena         : Magnetic Suceptibility
   Michael Atanasov       : Ab Initio Ligand Field Theory (pilot matlab implementation)
   Alexander A. Auer      : GIAO ZORA, VPT2 properties, NMR spectrum
   Ute Becker             : Parallelization
   Giovanni Bistoni       : ED, misc. LED, open-shell LED, HFLD
   Martin Brehm           : Molecular dynamics
   Dmytro Bykov           : SCF Hessian
   Vijay G. Chilkuri      : MRCI spin determinant printing, contributions to CSF-ICE
   Dipayan Datta          : RHF DLPNO-CCSD density
   Achintya Kumar Dutta   : EOM-CC, STEOM-CC
   Dmitry Ganyushin       : Spin-Orbit,Spin-Spin,Magnetic field MRCI
   Miquel Garcia          : C-PCM and meta-GGA Hessian, CC/C-PCM, Gaussian charge scheme
   Yang Guo               : DLPNO-NEVPT2, F12-NEVPT2, CIM, IAO-localization
   Andreas Hansen         : Spin unrestricted coupled pair/coupled cluster methods
   Benjamin Helmich-Paris : MC-RPA, TRAH-SCF, COSX integrals
   Lee Huntington         : MR-EOM, pCC
   Robert Izsak           : Overlap fitted RIJCOSX, COSX-SCS-MP3, EOM
   Marcus Kettner         : VPT2
   Christian Kollmar      : KDIIS, OOCD, Brueckner-CCSD(T), CCSD density, CASPT2, CASPT2-K
   Simone Kossmann        : Meta GGA functionals, TD-DFT gradient, OOMP2, MP2 Hessian
   Martin Krupicka        : Initial AUTO-CI
   Lucas Lang             : DCDCAS
   Marvin Lechner         : AUTO-CI (C++ implementation), FIC-MRCC
   Dagmar Lenk            : GEPOL surface, SMD
   Dimitrios Liakos       : Extrapolation schemes; Compound Job, initial MDCI parallelization
   Dimitrios Manganas     : Further ROCIS development; embedding schemes
   Dimitrios Pantazis     : SARC Basis sets
   Anastasios Papadopoulos: AUTO-CI, single reference methods and gradients
   Taras Petrenko         : DFT Hessian,TD-DFT gradient, ASA, ECA, R-Raman, ABS, FL, XAS/XES, NRVS
   Peter Pinski           : DLPNO-MP2, DLPNO-MP2 Gradient
   Christoph Reimann      : Effective Core Potentials
   Marius Retegan         : Local ZFS, SOC
   Christoph Riplinger    : Optimizer, TS searches, QM/MM, DLPNO-CCSD(T), (RO)-DLPNO pert. Triples
   Tobias Risthaus        : Range-separated hybrids, TD-DFT gradient, RPA, STAB
   Michael Roemelt        : Original ROCIS implementation
   Masaaki Saitow         : Open-shell DLPNO-CCSD energy and density
   Barbara Sandhoefer     : DKH picture change effects
   Avijit Sen             : IP-ROCIS
   Kantharuban Sivalingam : CASSCF convergence, NEVPT2, FIC-MRCI
   Bernardo de Souza      : ESD, SOC TD-DFT
   Georgi Stoychev        : AutoAux, RI-MP2 NMR, DLPNO-MP2 response
   Willem Van den Heuvel  : Paramagnetic NMR
   Boris Wezisla          : Elementary symmetry handling
   Frank Wennmohs         : Technical directorship


 We gratefully acknowledge several colleagues who have allowed us to
 interface, adapt or use parts of their codes:
   Stefan Grimme, W. Hujo, H. Kruse, P. Pracht,  : VdW corrections, initial TS optimization,
                  C. Bannwarth, S. Ehlert          DFT functionals, gCP, sTDA/sTD-DF
   Ed Valeev, F. Pavosevic, A. Kumar             : LibInt (2-el integral package), F12 methods
   Garnet Chan, S. Sharma, J. Yang, R. Olivares  : DMRG
   Ulf Ekstrom                                   : XCFun DFT Library
   Mihaly Kallay                                 : mrcc  (arbitrary order and MRCC methods)
   Jiri Pittner, Ondrej Demel                    : Mk-CCSD
   Frank Weinhold                                : gennbo (NPA and NBO analysis)
   Christopher J. Cramer and Donald G. Truhlar   : smd solvation model
   Lars Goerigk                                  : TD-DFT with DH, B97 family of functionals
   V. Asgeirsson, H. Jonsson                     : NEB implementation
   FAccTs GmbH                                   : IRC, NEB, NEB-TS, DLPNO-Multilevel, CI-OPT
                                                   MM, QMMM, 2- and 3-layer-ONIOM, Crystal-QMMM,
                                                   LR-CPCM, SF, NACMEs, symmetry and pop. for TD-DFT,
                                                   nearIR, NL-DFT gradient (VV10), updates on ESD,
                                                   ML-optimized integration grids
   S Lehtola, MJT Oliveira, MAL Marques          : LibXC Library
   Liviu Ungur et al                             : ANISO software


 Your calculation uses the libint2 library for the computation of 2-el integrals
 For citations please refer to: http://libint.valeyev.net

 Your ORCA version has been built with support for libXC version: 5.1.0
 For citations please refer to: https://tddft.org/programs/libxc/

 This ORCA versions uses:
   CBLAS   interface :  Fast vector & matrix operations
   LAPACKE interface :  Fast linear algebra routines
   SCALAPACK package :  Parallel linear algebra routines
   Shared memory     :  Shared parallel matrices
   BLAS/LAPACK       :  OpenBLAS 0.3.15  USE64BITINT DYNAMIC_ARCH NO_AFFINITY SkylakeX SINGLE_THREADED
        Core in use  :  SkylakeX
   Copyright (c) 2011-2014, The OpenBLAS Project


================================================================================

----- Orbital basis set information -----
Your calculation utilizes the basis: def2-SVP
   F. Weigend and R. Ahlrichs, Phys. Chem. Chem. Phys. 7, 3297 (2005).

The basis set includes element-specific modifications.

Your calculation utilizes the basis: aug-cc-pVTZ 
    H, B-Ne : Obtained from the ccRepo (grant-hill.group.shef.ac.uk/ccrepo) Feb. 2017
              R. A. Kendall, T. H. Dunning, Jr., R. J. Harrison, J. Chem. Phys. 96, 6796 (1992)
         He : Obtained from the ccRepo (grant-hill.group.shef.ac.uk/ccrepo) Feb. 2017
              D. E. Woon, T. H. Dunning, Jr., J. Chem. Phys. 100, 2975 (1994)
  Li-Be, Na : Obtained from the ccRepo (grant-hill.group.shef.ac.uk/ccrepo) Feb. 2017
              B. P. Prascher, D. E. Woon, K. A. Peterson, T. H. Dunning, Jr., A. K. Wilson, Theor. Chem. Acc. 128, 69 (2011)
         Mg : Obtained from the Peterson Research Group Website (tyr0.chem.wsu.edu/~kipeters) Feb. 2017
              B. P. Prascher, D. E. Woon, K. A. Peterson, T. H. Dunning, Jr., A. K. Wilson, Theor. Chem. Acc. 128, 69 (2011)
      Al-Ar : Obtained from the ccRepo (grant-hill.group.shef.ac.uk/ccrepo) Feb. 2017
              D. E. Woon, T. H. Dunning, Jr., J. Chem. Phys. 98, 1358 (1993)
      Sc-Zn : Obtained from the ccRepo (grant-hill.group.shef.ac.uk/ccrepo) Feb. 2017
              N. B. Balabanov, K. A. Peterson, J. Chem. Phys. 123, 064107 (2005)
              N. B. Balabanov, K. A. Peterson, J. Chem. Phys. 125, 074110 (2006)
      Ga-Kr : Obtained from the ccRepo (grant-hill.group.shef.ac.uk/ccrepo) Feb. 2017
              A. K. Wilson, D. E. Woon, K. A. Peterson, T. H. Dunning, Jr., J. Chem. Phys. 110, 7667 (1999)
     Ag, Au : Obtained from the Peterson Research Group Website (tyr0.chem.wsu.edu/~kipeters) Feb. 2017
              K. A. Peterson, C. Puzzarini, Theor. Chem. Acc. 114, 283 (2005)

Your calculation utilizes the basis: cc-pVTZ 
       H, B-Ne : Obtained from the ccRepo (grant-hill.group.shef.ac.uk/ccrepo) Feb. 2017
                 T. H. Dunning, Jr., J. Chem. Phys. 90, 1007 (1989)
            He : Obtained from the ccRepo (grant-hill.group.shef.ac.uk/ccrepo) Feb. 2017
                 D. E. Woon, T. H. Dunning, Jr., J. Chem. Phys. 100, 2975 (1994)
  Li-Be, Na-Mg : Obtained from the ccRepo (grant-hill.group.shef.ac.uk/ccrepo) Feb. 2017
                 B. P. Prascher, D. E. Woon, K. A. Peterson, T. H. Dunning, Jr., A. K. Wilson, Theor. Chem. Acc. 128, 69 (2011)
         Al-Ar : Obtained from the ccRepo (grant-hill.group.shef.ac.uk/ccrepo) Feb. 2017
                 D. E. Woon, T. H. Dunning, Jr., J. Chem. Phys. 98, 1358 (1993)
            Ca : Obtained from the Peterson Research Group Website (tyr0.chem.wsu.edu/~kipeters) Feb. 2017
                 J. Koput, K. A. Peterson, J. Phys. Chem. 106, 9595 (2002)
         Sc-Zn : Obtained from the ccRepo (grant-hill.group.shef.ac.uk/ccrepo) Feb. 2017
                 N. B. Balabanov, K. A. Peterson, J. Chem. Phys. 123, 064107 (2005)
                 N. B. Balabanov, K. A. Peterson, J. Chem. Phys. 125, 074110 (2006)
         Ga-Kr : Obtained from the ccRepo (grant-hill.group.shef.ac.uk/ccrepo) Feb. 2017
                 A. K. Wilson, D. E. Woon, K. A. Peterson, T. H. Dunning, Jr., J. Chem. Phys. 110, 7667 (1999)
             Y : Obtained from the ccRepo (grant-hill.group.shef.ac.uk/ccrepo) Feb. 2017
                 K. A. Peterson, D. Figgen, M. Dolg, H. Stoll, J. Chem. Phys. 126, 124101 (2007)
        Ag, Au : Obtained from the Peterson Research Group Website (tyr0.chem.wsu.edu/~kipeters) Feb. 2017
                 K. A. Peterson, C. Puzzarini, Theor. Chem. Acc. 114, 283 (2005)

----- AuxJ basis set information -----
Your calculation utilizes the auxiliary basis: def2/J
   F. Weigend, Phys. Chem. Chem. Phys. 8, 1057 (2006).

================================================================================
                                        WARNINGS
                       Please study these warnings very carefully!
================================================================================

WARNING: The globally-selected AuxJ basis set is optimized for use with ECPs
         Make sure a suitable alternative is explicitly given all heavy elements (Z>36)

INFO   : the flag for use of the SHARK integral package has been found!

================================================================================
                                       INPUT FILE
================================================================================
NAME = final022.orca.inp
|  1> ! NoMOPrint PrintBasis #MINIPRINT SMALLPRINT LARGEPRINT
|  2> ! ALLPOP XYZFILE
|  3> #! BP86 3-21G   TightSCF
|  4> ! ENGRAD
|  5> ! B3LYP NormalPNO PModel #DecontractAux
|  6> #! VerySlowConv 
|  7>  %maxcore 5000
|  8>  %scf  maxiter   500  end 
|  9> 
| 10> %pal
| 11>     nprocs 32
| 12> end
| 13> 
| 14> %basis
| 15>     NewGTO O    # New basis for oxygen
| 16>         "aug-cc-pVTZ"
| 17>     end
| 18>     NewGTO C    # New basis for carbon
| 19>         "aug-cc-pVTZ"
| 20>     end
| 21>     NewGTO H    # New basis for hydrogen
| 22>         "cc-pVTZ"
| 23>     end
| 24> end
| 25> 
| 26> * xyz 0   1
| 27>   C  10.04  12.19  9.6  #1
| 28>   H  10.36  11.83  8.62  #2
| 29>   H  10.68  13  9.9  #3
| 30>   C  10.16  11.04  10.52  #4
| 31>   H  9.79  11.38  11.52  #5
| 32>   H  9.49  10.2  10.13  #6
| 33>   C  11.51  10.3  10.7  #7
| 34>   H  12.41  10.89  10.63  #8
| 35>   H  11.58  9.49  10  #9
| 36>   C  11.59  9.54  12.07  #10
| 37>   H  10.79  8.74  12.13  #11
| 38>   H  11.35  10.24  12.88  #12
| 39>   O  12.94  9.08  12.16  #13
| 40>   H  13.16  8.9  13.11  #14
| 41>   O  8.68  12.52  9.5  #15
| 42>   H  8.58  13  8.67  #16
| 43>   O  7.94  14.54  11.57  #17
| 44>   H  7.13  14.71  12.07  #18
| 45>   H  7.89  13.72  11.12  #19
| 46>   O  14.92  9.61  10.26  #20
| 47>   H  15.66  9.05  10.17  #21
| 48>   H  14.35  9.19  10.89  #22
| 49>   O  10.53  11.91  14.19  #23
| 50>   H  10.7  11.82  15.15  #24
| 51>   H  9.56  11.88  14.12  #25
| 52>   O  8.95  14.18  7.4  #26
| 53>   H  9.52  14.88  7.7  #27
| 54>   H  8.18  14.65  7.1  #28
| 55>   O  9.43  7.54  8.31  #29
| 56>   H  8.61  7.67  7.82  #30
| 57>   H  9.08  7.78  9.18  #31
| 58>   O  11.63  7.46  6.48  #32
| 59>   H  10.95  7.69  7.09  #33
| 60>   H  11.39  7.81  5.59  #34
| 61>   O  9.39  15.72  13.72  #35
| 62>   H  10.3  15.65  14.01  #36
| 63>   H  9.17  15.15  12.97  #37
| 64>   O  12.11  13.8  13.2  #38
| 65>   H  11.61  13.18  13.72  #39
| 66>   H  12.14  14.55  13.85  #40
| 67>   O  6.4  9  9.95  #41
| 68>   H  7.19  8.45  10.1  #42
| 69>   H  6.42  9.65  10.66  #43
| 70>   O  9.61  11.62  5.67  #44
| 71>   H  9.6  12.35  6.23  #45
| 72>   H  9.73  11.9  4.77  #46
| 73>   O  13.72  9.14  7.56  #47
| 74>   H  13.83  9.37  8.51  #48
| 75>   H  13.06  8.54  7.43  #49
| 76>   O  8.35  7.56  11.1  #50
| 77>   H  7.83  7.98  11.78  #51
| 78>   H  8.51  6.69  11.44  #52
| 79>   O  9.63  16.78  10.85  #53
| 80>   H  9.04  16.07  11.09  #54
| 81>   H  10.1  16.4  10.09  #55
| 82>   O  8.12  9.33  6.12  #56
| 83>   H  8.97  9.84  6.04  #57
| 84>   H  7.89  8.89  5.27  #58
| 85>   O  5.51  15.1  12.88  #59
| 86>   H  5.44  15.06  13.79  #60
| 87>   H  4.86  15.76  12.54  #61
| 88>   O  14.27  9.07  14.48  #62
| 89>   H  14.04  10.01  14.28  #63
| 90>   H  14.92  8.76  13.82  #64
| 91>   O  9.39  12.5  17.03  #65
| 92>   H  8.48  12.36  17.23  #66
| 93>   H  9.36  13.27  16.4  #67
| 94>   O  12.91  14.53  8.52  #68
| 95>   H  13.06  13.93  7.71  #69
| 96>   H  13.08  13.85  9.24  #70
| 97>   O  17.63  8.42  10.05  #71
| 98>   H  17.59  9.35  9.68  #72
| 99>   H  17.55  8.4  10.99  #73
|100>   O  13.09  7.25  16.07  #74
|101>   H  13.4  7.88  15.37  #75
|102>   H  12.89  6.42  15.68  #76
|103>   O  10.96  5.25  9.46  #77
|104>   H  11.88  5.49  9.65  #78
|105>   H  10.48  6.11  9.24  #79
|106>   O  5.56  13.21  8.95  #80
|107>   H  5.61  13.86  8.28  #81
|108>   H  5.78  12.41  8.39  #82
|109>   O  8.96  8.46  14.52  #83
|110>   H  9.61  8.54  15.18  #84
|111>   H  8.93  9.27  13.96  #85
|112>   O  16.18  6.94  8.41  #86
|113>   H  15.55  7.51  7.88  #87
|114>   H  16.76  7.53  8.99  #88
|115>   O  6.83  16.51  9.72  #89
|116>   H  7.08  15.91  10.42  #90
|117>   H  7.47  17.23  9.89  #91
|118>   O  15.64  11.57  8.13  #92
|119>   H  14.77  11.45  7.79  #93
|120>   H  15.73  11.25  8.99  #94
|121>   O  6.31  15.68  7.06  #95
|122>   H  6.2  16  7.93  #96
|123>   H  5.54  15.86  6.59  #97
|124>   O  10.48  16  8.36  #98
|125>   H  11.36  15.58  8.18  #99
|126>   H  10.56  16.91  8.08  #100
|127>   O  8.23  17.6  6.21  #101
|128>   H  8.26  18.46  6.61  #102
|129>   H  7.55  17.07  6.6  #103
|130>   O  6.64  11.35  11.22  #104
|131>   H  7.23  11.79  10.58  #105
|132>   H  5.84  11.93  11.12  #106
|133>   O  13.11  12.91  10.65  #107
|134>   H  12.57  13.21  11.38  #108
|135>   H  13.76  12.41  11.16  #109
|136>   O  7.7  11.42  14  #110
|137>   H  7.18  11.32  13.14  #111
|138>   H  7.13  11.09  14.7  #112
|139>   O  15  11.7  12.28  #113
|140>   H  15.3  10.97  11.73  #114
|141>   H  15.53  11.8  13.08  #115
|142>   Q  0.6645  3.5$  16.47$  10.85$
|143>   Q  0.6645  2.5$  15.79$  11.7$
|144>   Q  -1.3290  3.18$  16.25$  11.58$
|145>   Q  0.6645  0.34$  15.22$  11.3$
|146>   Q  0.6645  1.09$  14.48$  12.55$
|147>   Q  -1.3290  0.93$  14.69$  11.72$
|148>   Q  0.6645  14.31$  16.4$  2.97$
|149>   Q  0.6645  14.94$  17.59$  3.44$
|150>   Q  -1.3290  14.95$  16.89$  3.08$
|151>   Q  0.6645  13.1$  12.37$  18.1$
|152>   Q  0.6645  14.48$  11.57$  17.94$
|153>   Q  -1.3290  13.95$  12.27$  17.88$
|154>   Q  0.6645  4.11$  12.85$  1.71$
|155>   Q  0.6645  5.02$  13.87$  2.11$
|156>   Q  -1.3290  4.83$  13.11$  1.89$
|157>   Q  0.6645  4.2$  12.64$  5.71$
|158>   Q  0.6645  5.38$  13.31$  5.65$
|159>   Q  -1.3290  4.59$  13.31$  5.8$
|160>   Q  0.6645  12.63$  14.25$  2.89$
|161>   Q  0.6645  13.89$  13.73$  3.55$
|162>   Q  -1.3290  13.37$  14.34$  3.25$
|163>   Q  0.6645  4.96$  17.02$  9.33$
|164>   Q  0.6645  3.55$  17.21$  8.35$
|165>   Q  -1.3290  4.1$  17.17$  9.08$
|166>   Q  0.6645  11.65$  5$  15.09$
|167>   Q  0.6645  11.83$  4.31$  16.44$
|168>   Q  -1.3290  12.08$  4.61$  15.66$
|169>   Q  0.6645  12.25$  11.57$  3.13$
|170>   Q  0.6645  13.61$  11.11$  2.52$
|171>   Q  -1.3290  13.06$  11.28$  3.14$
|172>   Q  0.6645  7.47$  2.71$  12.77$
|173>   Q  0.6645  7.14$  2.37$  14.25$
|174>   Q  -1.3290  7.59$  2.33$  13.52$
|175>   Q  0.6645  18.27$  8.46$  20.2$
|176>   Q  0.6645  18.84$  7.07$  20.1$
|177>   Q  -1.3290  18.61$  7.82$  19.8$
|178>   Q  0.6645  15.21$  15.15$  19.16$
|179>   Q  0.6645  14.91$  13.65$  18.98$
|180>   Q  -1.3290  15.13$  14.36$  19.39$
|181>   Q  0.6645  6.18$  8.59$  17.12$
|182>   Q  0.6645  5.43$  8.82$  18.42$
|183>   Q  -1.3290  5.52$  8.68$  17.63$
|184>   Q  0.6645  20.27$  12.94$  14.34$
|185>   Q  0.6645  19.87$  11.67$  13.7$
|186>   Q  -1.3290  20.1$  12.45$  13.68$
|187>   Q  0.6645  3.77$  16.91$  15.04$
|188>   Q  0.6645  2.17$  16.98$  15.05$
|189>   Q  -1.3290  2.95$  16.73$  15.29$
|190>   Q  0.6645  13.84$  10.47$  4.74$
|191>   Q  0.6645  14.17$  9.74$  6.03$
|192>   Q  -1.3290  14.27$  9.95$  5.22$
|193>   Q  0.6645  13.65$  1.67$  14.97$
|194>   Q  0.6645  15.07$  1.74$  15.57$
|195>   Q  -1.3290  14.34$  1.35$  15.35$
|196>   Q  0.6645  16.55$  2.97$  10.12$
|197>   Q  0.6645  17.2$  3.97$  9.22$
|198>   Q  -1.3290  17.12$  3.57$  9.93$
|199>   Q  0.6645  11.42$  7.75$  16.43$
|200>   Q  0.6645  10.85$  8.58$  17.52$
|201>   Q  -1.3290  10.8$  8.1$  16.86$
|202>   Q  0.6645  13.12$  11.05$  20.93$
|203>   Q  0.6645  12.61$  12.34$  21.76$
|204>   Q  -1.3290  12.53$  11.56$  21.3$
|205>   Q  0.6645  14.3$  20.97$  4.56$
|206>   Q  0.6645  13.79$  19.73$  5.16$
|207>   Q  -1.3290  13.76$  20.34$  4.61$
|208>   Q  0.6645  5.85$  2.48$  16.25$
|209>   Q  0.6645  7.13$  2.03$  17.12$
|210>   Q  -1.3290  6.72$  2.39$  16.49$
|211>   Q  0.6645  18.46$  15.16$  10.3$
|212>   Q  0.6645  18.24$  16.65$  10.83$
|213>   Q  -1.3290  18.21$  15.99$  10.27$
|214>   Q  0.6645  11.75$  19.7$  16.71$
|215>   Q  0.6645  12.9$  18.84$  16.17$
|216>   Q  -1.3290  12.44$  19.24$  16.76$
|217>   Q  0.6645  2.52$  10.26$  2.88$
|218>   Q  0.6645  2.15$  9.26$  4.06$
|219>   Q  -1.3290  2.05$  9.92$  3.56$
|220>   Q  0.6645  9.75$  11.41$  2.37$
|221>   Q  0.6645  9.88$  12.95$  2.7$
|222>   Q  -1.3290  10.14$  12.13$  2.67$
|223>   Q  0.6645  4.72$  10.94$  14.18$
|224>   Q  0.6645  4.81$  10.15$  15.5$
|225>   Q  -1.3290  5.05$  10.39$  14.73$
|226>   Q  0.6645  5.9$  18$  2.7$
|227>   Q  0.6645  5.06$  18.05$  1.43$
|228>   Q  -1.3290  5.18$  17.92$  2.27$
|229>   Q  0.6645  17.3$  14.63$  14.62$
|230>   Q  0.6645  16.17$  14.53$  15.8$
|231>   Q  -1.3290  16.96$  14.62$  15.46$
|232>   Q  0.6645  3.1$  13.95$  6.88$
|233>   Q  0.6645  2.09$  13.87$  8.08$
|234>   Q  -1.3290  2.4$  14.13$  7.35$
|235>   Q  0.6645  3.79$  2.94$  9.75$
|236>   Q  0.6645  4.89$  3$  10.87$
|237>   Q  -1.3290  4.21$  2.68$  10.46$
|238>   Q  0.6645  12.08$  16.59$  1.33$
|239>   Q  0.6645  10.7$  17.17$  1.76$
|240>   Q  -1.3290  11.25$  16.57$  1.54$
|241>   Q  0.6645  11.54$  2.07$  14.18$
|242>   Q  0.6645  12.45$  3.29$  14.61$
|243>   Q  -1.3290  12.25$  2.55$  14.17$
|244>   Q  0.6645  18.44$  5.75$  6.56$
|245>   Q  0.6645  19.97$  5.96$  6.33$
|246>   Q  -1.3290  19.15$  6.15$  6.34$
|247>   Q  0.6645  4.13$  13.21$  12.88$
|248>   Q  0.6645  3.57$  12.29$  11.85$
|249>   Q  -1.3290  4.03$  12.47$  12.53$
|250>   Q  0.6645  1.94$  13.29$  14.56$
|251>   Q  0.6645  2.31$  14.77$  14.76$
|252>   Q  -1.3290  1.99$  14.1$  14.33$
|253>   Q  0.6645  2.5$  7.09$  5.52$
|254>   Q  0.6645  3.23$  7.56$  4.16$
|255>   Q  -1.3290  2.86$  7.64$  4.94$
|256>   Q  0.6645  11.6$  17.45$  11.83$
|257>   Q  0.6645  12.76$  18.28$  11.47$
|258>   Q  -1.3290  12.32$  17.76$  11.94$
|259>   Q  0.6645  17.98$  7.94$  17.97$
|260>   Q  0.6645  18.06$  7.77$  16.45$
|261>   Q  -1.3290  17.67$  7.93$  17.17$
|262>   Q  0.6645  1.15$  17.59$  7.6$
|263>   Q  0.6645  1.86$  16.17$  7.31$
|264>   Q  -1.3290  1.75$  17.02$  7.31$
|265>   Q  0.6645  10.54$  4.24$  18.79$
|266>   Q  0.6645  9.87$  4.72$  17.39$
|267>   Q  -1.3290  10.35$  4.22$  17.93$
|268>   Q  0.6645  14.34$  12.72$  6.06$
|269>   Q  0.6645  12.9$  12.31$  5.68$
|270>   Q  -1.3290  13.52$  12.68$  6.13$
|271>   Q  0.6645  12.33$  10.01$  18.86$
|272>   Q  0.6645  10.99$  10.7$  18.76$
|273>   Q  -1.3290  11.48$  10.03$  18.79$
|274>   Q  0.6645  16.47$  15.18$  6.32$
|275>   Q  0.6645  16.59$  15.99$  4.97$
|276>   Q  -1.3290  16.23$  15.47$  5.56$
|277>   Q  0.6645  20.38$  9.4$  10.84$
|278>   Q  0.6645  19.57$  8.27$  10.38$
|279>   Q  -1.3290  20.12$  8.62$  10.88$
|280>   Q  0.6645  16.52$  13.66$  7.82$
|281>   Q  0.6645  17.08$  14.92$  8.6$
|282>   Q  -1.3290  17.05$  14.33$  7.98$
|283>   Q  0.6645  17.21$  2.36$  14.47$
|284>   Q  0.6645  18.46$  2.08$  13.53$
|285>   Q  -1.3290  17.68$  1.94$  13.86$
|286>   Q  0.6645  9.51$  15.32$  3.83$
|287>   Q  0.6645  9.41$  15.08$  2.32$
|288>   Q  -1.3290  9.28$  14.89$  3.11$
|289>   Q  0.6645  6.46$  11.79$  18.5$
|290>   Q  0.6645  5.65$  12.35$  17.3$
|291>   Q  -1.3290  6.37$  12.16$  17.74$
|292>   Q  0.6645  15.54$  10.66$  1.07$
|293>   Q  0.6645  16.3$  11.43$  2.02$
|294>   Q  -1.3290  16.17$  11.18$  1.26$
|295>   Q  0.6645  13.04$  6.41$  2.81$
|296>   Q  0.6645  13.79$  7.44$  3.81$
|297>   Q  -1.3290  13.28$  7.17$  3.16$
|298>   Q  0.6645  9.79$  15.77$  17.25$
|299>   Q  0.6645  10.81$  15.58$  18.5$
|300>   Q  -1.3290  10.52$  15.85$  17.73$
|301>   Q  0.6645  16.44$  8.07$  4.39$
|302>   Q  0.6645  15.99$  9.56$  4.58$
|303>   Q  -1.3290  16.52$  8.94$  4.36$
|304>   Q  0.6645  2.37$  11.21$  14.11$
|305>   Q  0.6645  2.55$  11.69$  15.55$
|306>   Q  -1.3290  2.1$  11.49$  14.86$
|307>   Q  0.6645  7.45$  21.12$  5.39$
|308>   Q  0.6645  6.12$  21.21$  4.75$
|309>   Q  -1.3290  6.93$  21.15$  4.74$
|310>   Q  0.6645  12.33$  16.77$  15.31$
|311>   Q  0.6645  11.65$  15.63$  16.24$
|312>   Q  -1.3290  12.06$  15.97$  15.54$
|313>   Q  0.6645  6.35$  12.36$  1.33$
|314>   Q  0.6645  7.86$  12.63$  0.74$
|315>   Q  -1.3290  7.15$  12.16$  0.98$
|316>   Q  0.6645  16.35$  11.49$  15.61$
|317>   Q  0.6645  17.07$  12.66$  14.87$
|318>   Q  -1.3290  16.74$  11.89$  14.93$
|319>   Q  0.6645  9.19$  5.83$  2.9$
|320>   Q  0.6645  10.09$  6.85$  3.76$
|321>   Q  -1.3290  9.51$  6.19$  3.6$
|322>   Q  0.6645  0.59$  15.96$  5.37$
|323>   Q  0.6645  1.61$  15.09$  4.63$
|324>   Q  -1.3290  0.91$  15.57$  4.71$
|325>   Q  0.6645  18.82$  8.56$  14.57$
|326>   Q  0.6645  19.45$  7.15$  14.18$
|327>   Q  -1.3290  18.85$  7.7$  14.53$
|328>   Q  0.6645  7.81$  15.19$  16.57$
|329>   Q  0.6645  8.74$  15.36$  15.33$
|330>   Q  -1.3290  8.54$  15.12$  16.11$
|331>   Q  0.6645  14.14$  14.14$  1.1$
|332>   Q  0.6645  14.49$  14.03$  -0.31$
|333>   Q  -1.3290  13.98$  14.03$  0.3$
|334>   Q  0.6645  11.09$  19.3$  7.01$
|335>   Q  0.6645  11.89$  18.01$  6.7$
|336>   Q  -1.3290  11.24$  18.45$  7.02$
|337>   Q  0.6645  17.81$  14.46$  12.04$
|338>   Q  0.6645  16.53$  15.15$  12.64$
|339>   Q  -1.3290  17.32$  14.78$  12.66$
|340>   Q  0.6645  17.27$  10.5$  21.39$
|341>   Q  0.6645  17.49$  10.97$  19.98$
|342>   Q  -1.3290  17.33$  10.42$  20.57$
|343>   Q  0.6645  7.12$  1.91$  7.96$
|344>   Q  0.6645  8.26$  1.27$  8.89$
|345>   Q  -1.3290  7.64$  1.82$  8.67$
|346>   Q  0.6645  14.31$  2.69$  10.28$
|347>   Q  0.6645  14.93$  1.26$  10.24$
|348>   Q  -1.3290  14.89$  2.06$  10.03$
|349>   Q  0.6645  5.83$  16.27$  16$
|350>   Q  0.6645  5.34$  14.79$  16.36$
|351>   Q  -1.3290  5.87$  15.39$  16.08$
|352>   Q  0.6645  5.32$  18.69$  14.19$
|353>   Q  0.6645  5.85$  18.63$  15.62$
|354>   Q  -1.3290  5.8$  18.42$  14.81$
|355>   Q  0.6645  1.98$  13.03$  10.78$
|356>   Q  0.6645  2.42$  11.92$  9.81$
|357>   Q  -1.3290  2.29$  12.26$  10.57$
|358>   Q  0.6645  20.58$  7.32$  12.39$
|359>   Q  0.6645  20.44$  5.86$  12.46$
|360>   Q  -1.3290  20.73$  6.56$  12.76$
|361>   Q  0.6645  6.06$  8.83$  13.73$
|362>   Q  0.6645  7.38$  8.22$  14.24$
|363>   Q  -1.3290  6.71$  8.34$  13.68$
|364>   Q  0.6645  14.84$  2.05$  8.04$
|365>   Q  0.6645  14.2$  2.26$  6.69$
|366>   Q  -1.3290  14.84$  2.26$  7.24$
|367>   Q  0.6645  8.79$  17.55$  13.78$
|368>   Q  0.6645  7.75$  18.66$  13.98$
|369>   Q  -1.3290  8.52$  18.33$  13.92$
|370>   Q  0.6645  9.25$  1.46$  14.08$
|371>   Q  0.6645  10.14$  0.27$  14.68$
|372>   Q  -1.3290  9.97$  1.06$  14.34$
|373>   Q  0.6645  3.71$  19.45$  12.08$
|374>   Q  0.6645  3.53$  17.95$  12.53$
|375>   Q  -1.3290  3.86$  18.74$  12.54$
|376>   Q  0.6645  9.68$  19.37$  12.49$
|377>   Q  0.6645  9.82$  18.83$  11$
|378>   Q  -1.3290  9.78$  19.41$  11.59$
|379>   Q  0.6645  11.32$  9.82$  21.46$
|380>   Q  0.6645  11.55$  8.28$  21.47$
|381>   Q  -1.3290  11.12$  9$  21.57$
|382>   Q  0.6645  13.51$  12.02$  15.94$
|383>   Q  0.6645  13.31$  12.48$  14.54$
|384>   Q  -1.3290  13.45$  11.87$  15.14$
|385>   Q  0.6645  8.2$  9.11$  1.95$
|386>   Q  0.6645  9.44$  9.26$  1.14$
|387>   Q  -1.3290  8.97$  9.39$  1.82$
|388>   Q  0.6645  3.5$  9.01$  17.2$
|389>   Q  0.6645  2.55$  9.11$  16.03$
|390>   Q  -1.3290  2.84$  9.34$  16.78$
|391>   Q  0.6645  17.23$  9.23$  6.44$
|392>   Q  0.6645  18.28$  8.29$  6.92$
|393>   Q  -1.3290  17.82$  8.97$  6.97$
|394>   Q  0.6645  16.25$  9.61$  17.02$
|395>   Q  0.6645  15.03$  9.75$  16.05$
|396>   Q  -1.3290  15.54$  9.96$  16.69$
|397>   Q  0.6645  7.91$  1.36$  5.53$
|398>   Q  0.6645  7.68$  2.87$  5.45$
|399>   Q  -1.3290  7.57$  2.09$  5.77$
|400>   Q  0.6645  9.53$  4.73$  11.13$
|401>   Q  0.6645  9.55$  5.06$  12.6$
|402>   Q  -1.3290  9.2$  5.04$  11.82$
|403>   Q  0.6645  7.64$  4.06$  16.02$
|404>   Q  0.6645  7.58$  5.53$  15.73$
|405>   Q  -1.3290  7.96$  4.83$  16$
|406>   Q  0.6645  18.34$  5.67$  16.23$
|407>   Q  0.6645  19.75$  4.91$  16.57$
|408>   Q  -1.3290  18.9$  4.99$  16.4$
|409>   Q  0.6645  16.29$  4.04$  7.26$
|410>   Q  0.6645  16.8$  5.42$  7.79$
|411>   Q  -1.3290  16.86$  4.64$  7.4$
|412>   Q  0.6645  9.94$  19.58$  14.88$
|413>   Q  0.6645  11.35$  19.97$  14.35$
|414>   Q  -1.3290  10.66$  20.03$  14.85$
|415>   Q  0.6645  13.51$  5.14$  7.59$
|416>   Q  0.6645  13.16$  5.8$  6.3$
|417>   Q  -1.3290  13.57$  5.24$  6.76$
|418>   Q  0.6645  4.51$  6.32$  17.5$
|419>   Q  0.6645  3.49$  5.36$  18$
|420>   Q  -1.3290  4.25$  5.65$  17.87$
|421>   Q  0.6645  9.27$  21.44$  7.04$
|422>   Q  0.6645  9.69$  21.62$  5.54$
|423>   Q  -1.3290  9.35$  21.22$  6.22$
|424>   Q  0.6645  13.18$  9.74$  0.76$
|425>   Q  0.6645  14.04$  9.02$  1.78$
|426>   Q  -1.3290  13.91$  9.59$  1.19$
|427>   Q  0.6645  8.44$  8.38$  19$
|428>   Q  0.6645  9.5$  8.96$  19.91$
|429>   Q  -1.3290  8.72$  8.77$  19.69$
|430>   Q  0.6645  9.94$  17.65$  17.81$
|431>   Q  0.6645  9.89$  19.07$  18.51$
|432>   Q  -1.3290  9.62$  18.41$  18.05$
|433>   Q  0.6645  2.36$  9.16$  11.92$
|434>   Q  0.6645  1.3$  10.01$  12.53$
|435>   Q  -1.3290  2.03$  9.59$  12.53$
|436>   Q  0.6645  5.84$  8.06$  5.16$
|437>   Q  0.6645  5.89$  9.71$  4.74$
|438>   Q  -1.3290  5.99$  8.82$  4.64$
|439>   Q  0.6645  12.93$  3.13$  12.36$
|440>   Q  0.6645  12.04$  3.05$  11.04$
|441>   Q  -1.3290  12.74$  3.23$  11.5$
|442>   Q  0.6645  6.34$  15.29$  22.31$
|443>   Q  0.6645  6.28$  16.43$  21.35$
|444>   Q  -1.3290  6.32$  15.64$  21.54$
|445>   Q  0.6645  4.29$  16.83$  4.69$
|446>   Q  0.6645  3.52$  17.64$  5.6$
|447>   Q  -1.3290  4.22$  17.34$  5.33$
|448>   Q  0.6645  7.3$  10.2$  20.17$
|449>   Q  0.6645  6.35$  11.18$  20.86$
|450>   Q  -1.3290  6.63$  10.68$  20.23$
|451>   Q  0.6645  19.09$  18.22$  8.12$
|452>   Q  0.6645  18.38$  16.94$  8.03$
|453>   Q  -1.3290  18.81$  17.56$  7.73$
|454>   Q  0.6645  3.81$  9.05$  9.66$
|455>   Q  0.6645  2.32$  9.08$  9.33$
|456>   Q  -1.3290  3$  8.98$  9.82$
|457>   Q  0.6645  9.39$  5.27$  14.98$
|458>   Q  0.6645  9.62$  6.5$  14.24$
|459>   Q  -1.3290  9.83$  5.74$  14.46$
|460>   Q  0.6645  7.98$  22.07$  12.5$
|461>   Q  0.6645  8.45$  20.87$  11.7$
|462>   Q  -1.3290  7.99$  21.56$  11.81$
|463>   Q  0.6645  13.55$  6.51$  20.82$
|464>   Q  0.6645  13.39$  6.29$  22.33$
|465>   Q  -1.3290  13.15$  6.61$  21.57$
|466>   Q  0.6645  13.12$  18$  13.73$
|467>   Q  0.6645  14.37$  18.06$  14.66$
|468>   Q  -1.3290  13.52$  18.07$  14.48$
|469>   Q  0.6645  15.28$  10.51$  20.04$
|470>   Q  0.6645  14.38$  9.5$  19.28$
|471>   Q  -1.3290  14.55$  10.2$  19.78$
|472>   Q  0.6645  14.66$  5.78$  19.37$
|473>   Q  0.6645  15.01$  4.41$  20.07$
|474>   Q  -1.3290  14.9$  5.25$  20.01$
|475>   Q  0.6645  9.03$  18.65$  2.71$
|476>   Q  0.6645  10.31$  19.5$  2.59$
|477>   Q  -1.3290  9.86$  18.77$  2.59$
|478>   Q  0.6645  2.72$  5.53$  10.02$
|479>   Q  0.6645  3.41$  6.8$  10.61$
|480>   Q  -1.3290  3.34$  5.98$  10.39$
|481>   Q  0.6645  14.28$  16.07$  12.05$
|482>   Q  0.6645  14.55$  14.6$  12.3$
|483>   Q  -1.3290  14.75$  15.37$  12.06$
|484>   Q  0.6645  19.4$  13.18$  11.79$
|485>   Q  0.6645  19.77$  13.53$  10.33$
|486>   Q  -1.3290  19.27$  13.44$  11.02$
|487>   Q  0.6645  7.24$  4.21$  11.2$
|488>   Q  0.6645  7.28$  2.91$  10.49$
|489>   Q  -1.3290  6.93$  3.48$  11$
|490>   Q  0.6645  3.95$  14.45$  4.26$
|491>   Q  0.6645  3.19$  14.86$  2.97$
|492>   Q  -1.3290  3.69$  14.97$  3.65$
|493>   Q  0.6645  7.24$  19.31$  3.99$
|494>   Q  0.6645  7.89$  17.93$  4.27$
|495>   Q  -1.3290  7.44$  18.49$  3.83$
|496>   Q  0.6645  6.3$  5.67$  3.07$
|497>   Q  0.6645  5.43$  5.14$  1.81$
|498>   Q  -1.3290  5.89$  5.66$  2.3$
|499>   Q  0.6645  5.73$  16.01$  2.76$
|500>   Q  0.6645  7.24$  15.35$  2.92$
|501>   Q  -1.3290  6.43$  15.5$  2.58$
|502>   Q  0.6645  14.94$  15.95$  10.2$
|503>   Q  0.6645  14.29$  15.84$  8.84$
|504>   Q  -1.3290  14.79$  16.23$  9.4$
|505>   Q  0.6645  4.9$  5.51$  13.72$
|506>   Q  0.6645  6.15$  6.39$  13.89$
|507>   Q  -1.3290  5.41$  6.03$  14.15$
|508>   Q  0.6645  19.19$  10.7$  6.98$
|509>   Q  0.6645  20.33$  11.77$  7.03$
|510>   Q  -1.3290  19.88$  11.12$  7.3$
|511>   Q  0.6645  10.64$  12.74$  18.41$
|512>   Q  0.6645  11.32$  12.5$  19.78$
|513>   Q  -1.3290  11.32$  12.69$  18.95$
|514>   Q  0.6645  6.72$  5.07$  5.34$
|515>   Q  0.6645  8.02$  5.36$  4.46$
|516>   Q  -1.3290  7.27$  4.94$  4.69$
|517>   Q  0.6645  6.86$  19.96$  8.41$
|518>   Q  0.6645  7.33$  20.3$  9.72$
|519>   Q  -1.3290  7.43$  19.91$  9$
|520>   Q  0.6645  13.61$  15.2$  15.98$
|521>   Q  0.6645  14.39$  14.23$  16.93$
|522>   Q  -1.3290  14.29$  14.82$  16.3$
|523>   Q  0.6645  5.72$  8.99$  2.7$
|524>   Q  0.6645  6.26$  10.03$  1.76$
|525>   Q  -1.3290  5.95$  9.26$  1.95$
|526>   Q  0.6645  16.2$  12.33$  4.61$
|527>   Q  0.6645  16.22$  13.72$  3.97$
|528>   Q  -1.3290  16.08$  12.89$  4$
|529>   Q  0.6645  15.16$  6.06$  15.04$
|530>   Q  0.6645  15.61$  4.61$  15.11$
|531>   Q  -1.3290  15.36$  5.31$  14.74$
|532>   Q  0.6645  9.18$  2.98$  7.52$
|533>   Q  0.6645  10.14$  4.14$  7.95$
|534>   Q  -1.3290  9.88$  3.33$  7.83$
|535>   Q  0.6645  4.64$  20.43$  6.96$
|536>   Q  0.6645  5.22$  19.02$  6.5$
|537>   Q  -1.3290  5.23$  19.83$  6.8$
|538>   Q  0.6645  7.51$  12.01$  4.89$
|539>   Q  0.6645  6.4$  12.25$  3.93$
|540>   Q  -1.3290  6.72$  12.09$  4.68$
|541>   Q  0.6645  10.59$  17.23$  4.06$
|542>   Q  0.6645  9.88$  17.18$  5.34$
|543>   Q  -1.3290  10.34$  16.84$  4.7$
|544>   Q  0.6645  14.24$  18.04$  9.97$
|545>   Q  0.6645  14.49$  19.64$  10.12$
|546>   Q  -1.3290  14.03$  18.87$  10$
|547>   Q  0.6645  8.57$  6.88$  17.13$
|548>   Q  0.6645  7.39$  6.39$  18.01$
|549>   Q  -1.3290  7.88$  6.97$  17.62$
|550>   Q  0.6645  3.58$  19.19$  9.8$
|551>   Q  0.6645  3.68$  20.69$  9.93$
|552>   Q  -1.3290  3.35$  19.95$  10.06$
|553>   Q  0.6645  12.25$  16.04$  5.37$
|554>   Q  0.6645  13.73$  15.81$  5.68$
|555>   Q  -1.3290  12.98$  16.21$  5.75$
|556>   Q  0.6645  10.54$  2.6$  9.62$
|557>   Q  0.6645  10.45$  1.25$  10.39$
|558>   Q  -1.3290  10.5$  2.08$  10.34$
|559>   Q  0.6645  11.27$  20.99$  12.01$
|560>   Q  0.6645  11.31$  22.22$  12.9$
|561>   Q  -1.3290  11.56$  21.46$  12.62$
|562>   Q  0.6645  13.47$  1.04$  17.14$
|563>   Q  0.6645  11.95$  1.48$  17.4$
|564>   Q  -1.3290  12.75$  1.26$  17.6$
|565>   Q  0.6645  5.74$  6.07$  7.17$
|566>   Q  0.6645  4.71$  5.95$  6.16$
|567>   Q  -1.3290  5.42$  6.2$  6.41$
|568>   Q  0.6645  10.32$  8.91$  3.38$
|569>   Q  0.6645  11.85$  8.39$  3.51$
|570>   Q  -1.3290  11.07$  8.67$  3.78$
|571>   Q  0.6645  9.24$  20.83$  8.83$
|572>   Q  0.6645  10.59$  21.57$  8.75$
|573>   Q  -1.3290  9.75$  21.48$  8.77$
|574>   Q  0.6645  14.02$  7.49$  17.97$
|575>   Q  0.6645  15.51$  7.57$  18.12$
|576>   Q  -1.3290  14.73$  7.68$  18.38$
|577>   Q  0.6645  19.46$  10.21$  14.96$
|578>   Q  0.6645  18.11$  10.6$  14.19$
|579>   Q  -1.3290  18.88$  10.23$  14.28$
|580>   Q  0.6645  3.46$  13.13$  17.78$
|581>   Q  0.6645  3.48$  14.53$  17.54$
|582>   Q  -1.3290  3.79$  13.79$  17.46$
|583>   Q  0.6645  1.3$  10.87$  7.36$
|584>   Q  0.6645  2.73$  11.41$  7.4$
|585>   Q  -1.3290  1.97$  11.26$  7.71$
|586>   Q  0.6645  14.39$  18.38$  8.11$
|587>   Q  0.6645  14.57$  17.68$  6.78$
|588>   Q  -1.3290  14.66$  18.32$  7.29$
|589>   Q  0.6645  2.37$  8.23$  14.02$
|590>   Q  0.6645  3.49$  7.4$  14.64$
|591>   Q  -1.3290  2.76$  7.82$  14.65$
|592>   Q  0.6645  15.4$  21.84$  7$
|593>   Q  0.6645  14.86$  20.42$  7.36$
|594>   Q  -1.3290  15.03$  21.24$  7.5$
|595>   Q  0.6645  15.73$  19.28$  13.85$
|596>   Q  0.6645  16.69$  18.22$  13.32$
|597>   Q  -1.3290  16.11$  18.53$  13.87$
|598>   Q  0.6645  6.75$  10.28$  7.01$
|599>   Q  0.6645  6.33$  10.33$  8.4$
|600>   Q  -1.3290  6.29$  10.55$  7.63$
|601>   Q  0.6645  2.44$  4.49$  13.12$
|602>   Q  0.6645  3.41$  4.66$  11.94$
|603>   Q  -1.3290  3.21$  4.58$  12.76$
|604>   Q  0.6645  20.88$  11.4$  11.9$
|605>   Q  0.6645  22.04$  11.45$  11.14$
|606>   Q  -1.3290  21.37$  11.08$  11.4$
|607>   Q  0.6645  4.57$  10.73$  6.54$
|608>   Q  0.6645  3.48$  9.85$  5.72$
|609>   Q  -1.3290  4.03$  10.52$  5.89$
|610>   Q  0.6645  12.55$  20.35$  9.17$
|611>   Q  0.6645  13.17$  21.6$  8.75$
|612>   Q  -1.3290  12.57$  21.18$  9.04$
|613>   Q  0.6645  11.75$  2.64$  6.7$
|614>   Q  0.6645  12.92$  3.44$  6.17$
|615>   Q  -1.3290  12.4$  2.8$  6.17$
|616>   Q  0.6645  18.66$  11.32$  8.98$
|617>   Q  0.6645  18.31$  11.85$  10.4$
|618>   Q  -1.3290  18.22$  11.33$  9.73$
|619>   Q  0.6645  17.14$  7.74$  13.52$
|620>   Q  0.6645  16.25$  7.04$  12.5$
|621>   Q  -1.3290  16.59$  7.69$  12.92$
|622>   Q  0.6645  14.21$  4.98$  10.18$
|623>   Q  0.6645  14.5$  5.85$  9.15$
|624>   Q  -1.3290  13.99$  5.35$  9.51$
|625>   Q  0.6645  10.17$  2.26$  17.48$
|626>   Q  0.6645  9.97$  1.53$  16.03$
|627>   Q  -1.3290  10.05$  1.57$  16.92$
|628>   Q  0.6645  17.56$  3.57$  16.24$
|629>   Q  0.6645  16.28$  3.09$  17$
|630>   Q  -1.3290  16.74$  3.27$  16.32$
|631>   Q  0.6645  4.88$  5.19$  9.31$
|632>   Q  0.6645  6.14$  4.39$  9.04$
|633>   Q  -1.3290  5.45$  4.78$  8.82$
|634>   Q  0.6645  21.93$  10.59$  15.2$
|635>   Q  0.6645  21.4$  9.83$  16.57$
|636>   Q  -1.3290  21.36$  10.27$  15.82$
|637>   Q  0.6645  17.01$  11.66$  6.71$
|638>   Q  0.6645  17.82$  12.75$  6.21$
|639>   Q  -1.3290  17.33$  12.1$  6.11$
|640>   Q  0.6645  15.5$  4.92$  12.79$
|641>   Q  0.6645  16.33$  4.61$  11.36$
|642>   Q  -1.3290  15.82$  5.04$  11.97$
|643>   Q  0.6645  15.79$  6.16$  4.26$
|644>   Q  0.6645  15.15$  6.13$  5.6$
|645>   Q  -1.3290  15.56$  6.49$  4.96$
|646>   Q  0.6645  0.1$  12.8$  5.21$
|647>   Q  0.6645  0.59$  13.02$  6.54$
|648>   Q  -1.3290  0.15$  12.62$  6$
|649> *
|650> 
|651>                          ****END OF INPUT****
================================================================================

                     *******************************
                     * Energy+Gradient Calculation *
                     *******************************

---------------------------------
CARTESIAN COORDINATES (ANGSTROEM)
---------------------------------
  C     10.040000   12.190000    9.600000
  H     10.360000   11.830000    8.620000
  H     10.680000   13.000000    9.900000
  C     10.160000   11.040000   10.520000
  H      9.790000   11.380000   11.520000
  H      9.490000   10.200000   10.130000
  C     11.510000   10.300000   10.700000
  H     12.410000   10.890000   10.630000
  H     11.580000    9.490000   10.000000
  C     11.590000    9.540000   12.070000
  H     10.790000    8.740000   12.130000
  H     11.350000   10.240000   12.880000
  O     12.940000    9.080000   12.160000
  H     13.160000    8.900000   13.110000
  O      8.680000   12.520000    9.500000
  H      8.580000   13.000000    8.670000
  O      7.940000   14.540000   11.570000
  H      7.130000   14.710000   12.070000
  H      7.890000   13.720000   11.120000
  O     14.920000    9.610000   10.260000
  H     15.660000    9.050000   10.170000
  H     14.350000    9.190000   10.890000
  O     10.530000   11.910000   14.190000
  H     10.700000   11.820000   15.150000
  H      9.560000   11.880000   14.120000
  O      8.950000   14.180000    7.400000
  H      9.520000   14.880000    7.700000
  H      8.180000   14.650000    7.100000
  O      9.430000    7.540000    8.310000
  H      8.610000    7.670000    7.820000
  H      9.080000    7.780000    9.180000
  O     11.630000    7.460000    6.480000
  H     10.950000    7.690000    7.090000
  H     11.390000    7.810000    5.590000
  O      9.390000   15.720000   13.720000
  H     10.300000   15.650000   14.010000
  H      9.170000   15.150000   12.970000
  O     12.110000   13.800000   13.200000
  H     11.610000   13.180000   13.720000
  H     12.140000   14.550000   13.850000
  O      6.400000    9.000000    9.950000
  H      7.190000    8.450000   10.100000
  H      6.420000    9.650000   10.660000
  O      9.610000   11.620000    5.670000
  H      9.600000   12.350000    6.230000
  H      9.730000   11.900000    4.770000
  O     13.720000    9.140000    7.560000
  H     13.830000    9.370000    8.510000
  H     13.060000    8.540000    7.430000
  O      8.350000    7.560000   11.100000
  H      7.830000    7.980000   11.780000
  H      8.510000    6.690000   11.440000
  O      9.630000   16.780000   10.850000
  H      9.040000   16.070000   11.090000
  H     10.100000   16.400000   10.090000
  O      8.120000    9.330000    6.120000
  H      8.970000    9.840000    6.040000
  H      7.890000    8.890000    5.270000
  O      5.510000   15.100000   12.880000
  H      5.440000   15.060000   13.790000
  H      4.860000   15.760000   12.540000
  O     14.270000    9.070000   14.480000
  H     14.040000   10.010000   14.280000
  H     14.920000    8.760000   13.820000
  O      9.390000   12.500000   17.030000
  H      8.480000   12.360000   17.230000
  H      9.360000   13.270000   16.400000
  O     12.910000   14.530000    8.520000
  H     13.060000   13.930000    7.710000
  H     13.080000   13.850000    9.240000
  O     17.630000    8.420000   10.050000
  H     17.590000    9.350000    9.680000
  H     17.550000    8.400000   10.990000
  O     13.090000    7.250000   16.070000
  H     13.400000    7.880000   15.370000
  H     12.890000    6.420000   15.680000
  O     10.960000    5.250000    9.460000
  H     11.880000    5.490000    9.650000
  H     10.480000    6.110000    9.240000
  O      5.560000   13.210000    8.950000
  H      5.610000   13.860000    8.280000
  H      5.780000   12.410000    8.390000
  O      8.960000    8.460000   14.520000
  H      9.610000    8.540000   15.180000
  H      8.930000    9.270000   13.960000
  O     16.180000    6.940000    8.410000
  H     15.550000    7.510000    7.880000
  H     16.760000    7.530000    8.990000
  O      6.830000   16.510000    9.720000
  H      7.080000   15.910000   10.420000
  H      7.470000   17.230000    9.890000
  O     15.640000   11.570000    8.130000
  H     14.770000   11.450000    7.790000
  H     15.730000   11.250000    8.990000
  O      6.310000   15.680000    7.060000
  H      6.200000   16.000000    7.930000
  H      5.540000   15.860000    6.590000
  O     10.480000   16.000000    8.360000
  H     11.360000   15.580000    8.180000
  H     10.560000   16.910000    8.080000
  O      8.230000   17.600000    6.210000
  H      8.260000   18.460000    6.610000
  H      7.550000   17.070000    6.600000
  O      6.640000   11.350000   11.220000
  H      7.230000   11.790000   10.580000
  H      5.840000   11.930000   11.120000
  O     13.110000   12.910000   10.650000
  H     12.570000   13.210000   11.380000
  H     13.760000   12.410000   11.160000
  O      7.700000   11.420000   14.000000
  H      7.180000   11.320000   13.140000
  H      7.130000   11.090000   14.700000
  O     15.000000   11.700000   12.280000
  H     15.300000   10.970000   11.730000
  H     15.530000   11.800000   13.080000
  Q      3.500000   16.470000   10.850000
  Q      2.500000   15.790000   11.700000
  Q      3.180000   16.250000   11.580000
  Q      0.340000   15.220000   11.300000
  Q      1.090000   14.480000   12.550000
  Q      0.930000   14.690000   11.720000
  Q     14.310000   16.400000    2.970000
  Q     14.940000   17.590000    3.440000
  Q     14.950000   16.890000    3.080000
  Q     13.100000   12.370000   18.100000
  Q     14.480000   11.570000   17.940000
  Q     13.950000   12.270000   17.880000
  Q      4.110000   12.850000    1.710000
  Q      5.020000   13.870000    2.110000
  Q      4.830000   13.110000    1.890000
  Q      4.200000   12.640000    5.710000
  Q      5.380000   13.310000    5.650000
  Q      4.590000   13.310000    5.800000
  Q     12.630000   14.250000    2.890000
  Q     13.890000   13.730000    3.550000
  Q     13.370000   14.340000    3.250000
  Q      4.960000   17.020000    9.330000
  Q      3.550000   17.210000    8.350000
  Q      4.100000   17.170000    9.080000
  Q     11.650000    5.000000   15.090000
  Q     11.830000    4.310000   16.440000
  Q     12.080000    4.610000   15.660000
  Q     12.250000   11.570000    3.130000
  Q     13.610000   11.110000    2.520000
  Q     13.060000   11.280000    3.140000
  Q      7.470000    2.710000   12.770000
  Q      7.140000    2.370000   14.250000
  Q      7.590000    2.330000   13.520000
  Q     18.270000    8.460000   20.200000
  Q     18.840000    7.070000   20.100000
  Q     18.610000    7.820000   19.800000
  Q     15.210000   15.150000   19.160000
  Q     14.910000   13.650000   18.980000
  Q     15.130000   14.360000   19.390000
  Q      6.180000    8.590000   17.120000
  Q      5.430000    8.820000   18.420000
  Q      5.520000    8.680000   17.630000
  Q     20.270000   12.940000   14.340000
  Q     19.870000   11.670000   13.700000
  Q     20.100000   12.450000   13.680000
  Q      3.770000   16.910000   15.040000
  Q      2.170000   16.980000   15.050000
  Q      2.950000   16.730000   15.290000
  Q     13.840000   10.470000    4.740000
  Q     14.170000    9.740000    6.030000
  Q     14.270000    9.950000    5.220000
  Q     13.650000    1.670000   14.970000
  Q     15.070000    1.740000   15.570000
  Q     14.340000    1.350000   15.350000
  Q     16.550000    2.970000   10.120000
  Q     17.200000    3.970000    9.220000
  Q     17.120000    3.570000    9.930000
  Q     11.420000    7.750000   16.430000
  Q     10.850000    8.580000   17.520000
  Q     10.800000    8.100000   16.860000
  Q     13.120000   11.050000   20.930000
  Q     12.610000   12.340000   21.760000
  Q     12.530000   11.560000   21.300000
  Q     14.300000   20.970000    4.560000
  Q     13.790000   19.730000    5.160000
  Q     13.760000   20.340000    4.610000
  Q      5.850000    2.480000   16.250000
  Q      7.130000    2.030000   17.120000
  Q      6.720000    2.390000   16.490000
  Q     18.460000   15.160000   10.300000
  Q     18.240000   16.650000   10.830000
  Q     18.210000   15.990000   10.270000
  Q     11.750000   19.700000   16.710000
  Q     12.900000   18.840000   16.170000
  Q     12.440000   19.240000   16.760000
  Q      2.520000   10.260000    2.880000
  Q      2.150000    9.260000    4.060000
  Q      2.050000    9.920000    3.560000
  Q      9.750000   11.410000    2.370000
  Q      9.880000   12.950000    2.700000
  Q     10.140000   12.130000    2.670000
  Q      4.720000   10.940000   14.180000
  Q      4.810000   10.150000   15.500000
  Q      5.050000   10.390000   14.730000
  Q      5.900000   18.000000    2.700000
  Q      5.060000   18.050000    1.430000
  Q      5.180000   17.920000    2.270000
  Q     17.300000   14.630000   14.620000
  Q     16.170000   14.530000   15.800000
  Q     16.960000   14.620000   15.460000
  Q      3.100000   13.950000    6.880000
  Q      2.090000   13.870000    8.080000
  Q      2.400000   14.130000    7.350000
  Q      3.790000    2.940000    9.750000
  Q      4.890000    3.000000   10.870000
  Q      4.210000    2.680000   10.460000
  Q     12.080000   16.590000    1.330000
  Q     10.700000   17.170000    1.760000
  Q     11.250000   16.570000    1.540000
  Q     11.540000    2.070000   14.180000
  Q     12.450000    3.290000   14.610000
  Q     12.250000    2.550000   14.170000
  Q     18.440000    5.750000    6.560000
  Q     19.970000    5.960000    6.330000
  Q     19.150000    6.150000    6.340000
  Q      4.130000   13.210000   12.880000
  Q      3.570000   12.290000   11.850000
  Q      4.030000   12.470000   12.530000
  Q      1.940000   13.290000   14.560000
  Q      2.310000   14.770000   14.760000
  Q      1.990000   14.100000   14.330000
  Q      2.500000    7.090000    5.520000
  Q      3.230000    7.560000    4.160000
  Q      2.860000    7.640000    4.940000
  Q     11.600000   17.450000   11.830000
  Q     12.760000   18.280000   11.470000
  Q     12.320000   17.760000   11.940000
  Q     17.980000    7.940000   17.970000
  Q     18.060000    7.770000   16.450000
  Q     17.670000    7.930000   17.170000
  Q      1.150000   17.590000    7.600000
  Q      1.860000   16.170000    7.310000
  Q      1.750000   17.020000    7.310000
  Q     10.540000    4.240000   18.790000
  Q      9.870000    4.720000   17.390000
  Q     10.350000    4.220000   17.930000
  Q     14.340000   12.720000    6.060000
  Q     12.900000   12.310000    5.680000
  Q     13.520000   12.680000    6.130000
  Q     12.330000   10.010000   18.860000
  Q     10.990000   10.700000   18.760000
  Q     11.480000   10.030000   18.790000
  Q     16.470000   15.180000    6.320000
  Q     16.590000   15.990000    4.970000
  Q     16.230000   15.470000    5.560000
  Q     20.380000    9.400000   10.840000
  Q     19.570000    8.270000   10.380000
  Q     20.120000    8.620000   10.880000
  Q     16.520000   13.660000    7.820000
  Q     17.080000   14.920000    8.600000
  Q     17.050000   14.330000    7.980000
  Q     17.210000    2.360000   14.470000
  Q     18.460000    2.080000   13.530000
  Q     17.680000    1.940000   13.860000
  Q      9.510000   15.320000    3.830000
  Q      9.410000   15.080000    2.320000
  Q      9.280000   14.890000    3.110000
  Q      6.460000   11.790000   18.500000
  Q      5.650000   12.350000   17.300000
  Q      6.370000   12.160000   17.740000
  Q     15.540000   10.660000    1.070000
  Q     16.300000   11.430000    2.020000
  Q     16.170000   11.180000    1.260000
  Q     13.040000    6.410000    2.810000
  Q     13.790000    7.440000    3.810000
  Q     13.280000    7.170000    3.160000
  Q      9.790000   15.770000   17.250000
  Q     10.810000   15.580000   18.500000
  Q     10.520000   15.850000   17.730000
  Q     16.440000    8.070000    4.390000
  Q     15.990000    9.560000    4.580000
  Q     16.520000    8.940000    4.360000
  Q      2.370000   11.210000   14.110000
  Q      2.550000   11.690000   15.550000
  Q      2.100000   11.490000   14.860000
  Q      7.450000   21.120000    5.390000
  Q      6.120000   21.210000    4.750000
  Q      6.930000   21.150000    4.740000
  Q     12.330000   16.770000   15.310000
  Q     11.650000   15.630000   16.240000
  Q     12.060000   15.970000   15.540000
  Q      6.350000   12.360000    1.330000
  Q      7.860000   12.630000    0.740000
  Q      7.150000   12.160000    0.980000
  Q     16.350000   11.490000   15.610000
  Q     17.070000   12.660000   14.870000
  Q     16.740000   11.890000   14.930000
  Q      9.190000    5.830000    2.900000
  Q     10.090000    6.850000    3.760000
  Q      9.510000    6.190000    3.600000
  Q      0.590000   15.960000    5.370000
  Q      1.610000   15.090000    4.630000
  Q      0.910000   15.570000    4.710000
  Q     18.820000    8.560000   14.570000
  Q     19.450000    7.150000   14.180000
  Q     18.850000    7.700000   14.530000
  Q      7.810000   15.190000   16.570000
  Q      8.740000   15.360000   15.330000
  Q      8.540000   15.120000   16.110000
  Q     14.140000   14.140000    1.100000
  Q     14.490000   14.030000   -0.310000
  Q     13.980000   14.030000    0.300000
  Q     11.090000   19.300000    7.010000
  Q     11.890000   18.010000    6.700000
  Q     11.240000   18.450000    7.020000
  Q     17.810000   14.460000   12.040000
  Q     16.530000   15.150000   12.640000
  Q     17.320000   14.780000   12.660000
  Q     17.270000   10.500000   21.390000
  Q     17.490000   10.970000   19.980000
  Q     17.330000   10.420000   20.570000
  Q      7.120000    1.910000    7.960000
  Q      8.260000    1.270000    8.890000
  Q      7.640000    1.820000    8.670000
  Q     14.310000    2.690000   10.280000
  Q     14.930000    1.260000   10.240000
  Q     14.890000    2.060000   10.030000
  Q      5.830000   16.270000   16.000000
  Q      5.340000   14.790000   16.360000
  Q      5.870000   15.390000   16.080000
  Q      5.320000   18.690000   14.190000
  Q      5.850000   18.630000   15.620000
  Q      5.800000   18.420000   14.810000
  Q      1.980000   13.030000   10.780000
  Q      2.420000   11.920000    9.810000
  Q      2.290000   12.260000   10.570000
  Q     20.580000    7.320000   12.390000
  Q     20.440000    5.860000   12.460000
  Q     20.730000    6.560000   12.760000
  Q      6.060000    8.830000   13.730000
  Q      7.380000    8.220000   14.240000
  Q      6.710000    8.340000   13.680000
  Q     14.840000    2.050000    8.040000
  Q     14.200000    2.260000    6.690000
  Q     14.840000    2.260000    7.240000
  Q      8.790000   17.550000   13.780000
  Q      7.750000   18.660000   13.980000
  Q      8.520000   18.330000   13.920000
  Q      9.250000    1.460000   14.080000
  Q     10.140000    0.270000   14.680000
  Q      9.970000    1.060000   14.340000
  Q      3.710000   19.450000   12.080000
  Q      3.530000   17.950000   12.530000
  Q      3.860000   18.740000   12.540000
  Q      9.680000   19.370000   12.490000
  Q      9.820000   18.830000   11.000000
  Q      9.780000   19.410000   11.590000
  Q     11.320000    9.820000   21.460000
  Q     11.550000    8.280000   21.470000
  Q     11.120000    9.000000   21.570000
  Q     13.510000   12.020000   15.940000
  Q     13.310000   12.480000   14.540000
  Q     13.450000   11.870000   15.140000
  Q      8.200000    9.110000    1.950000
  Q      9.440000    9.260000    1.140000
  Q      8.970000    9.390000    1.820000
  Q      3.500000    9.010000   17.200000
  Q      2.550000    9.110000   16.030000
  Q      2.840000    9.340000   16.780000
  Q     17.230000    9.230000    6.440000
  Q     18.280000    8.290000    6.920000
  Q     17.820000    8.970000    6.970000
  Q     16.250000    9.610000   17.020000
  Q     15.030000    9.750000   16.050000
  Q     15.540000    9.960000   16.690000
  Q      7.910000    1.360000    5.530000
  Q      7.680000    2.870000    5.450000
  Q      7.570000    2.090000    5.770000
  Q      9.530000    4.730000   11.130000
  Q      9.550000    5.060000   12.600000
  Q      9.200000    5.040000   11.820000
  Q      7.640000    4.060000   16.020000
  Q      7.580000    5.530000   15.730000
  Q      7.960000    4.830000   16.000000
  Q     18.340000    5.670000   16.230000
  Q     19.750000    4.910000   16.570000
  Q     18.900000    4.990000   16.400000
  Q     16.290000    4.040000    7.260000
  Q     16.800000    5.420000    7.790000
  Q     16.860000    4.640000    7.400000
  Q      9.940000   19.580000   14.880000
  Q     11.350000   19.970000   14.350000
  Q     10.660000   20.030000   14.850000
  Q     13.510000    5.140000    7.590000
  Q     13.160000    5.800000    6.300000
  Q     13.570000    5.240000    6.760000
  Q      4.510000    6.320000   17.500000
  Q      3.490000    5.360000   18.000000
  Q      4.250000    5.650000   17.870000
  Q      9.270000   21.440000    7.040000
  Q      9.690000   21.620000    5.540000
  Q      9.350000   21.220000    6.220000
  Q     13.180000    9.740000    0.760000
  Q     14.040000    9.020000    1.780000
  Q     13.910000    9.590000    1.190000
  Q      8.440000    8.380000   19.000000
  Q      9.500000    8.960000   19.910000
  Q      8.720000    8.770000   19.690000
  Q      9.940000   17.650000   17.810000
  Q      9.890000   19.070000   18.510000
  Q      9.620000   18.410000   18.050000
  Q      2.360000    9.160000   11.920000
  Q      1.300000   10.010000   12.530000
  Q      2.030000    9.590000   12.530000
  Q      5.840000    8.060000    5.160000
  Q      5.890000    9.710000    4.740000
  Q      5.990000    8.820000    4.640000
  Q     12.930000    3.130000   12.360000
  Q     12.040000    3.050000   11.040000
  Q     12.740000    3.230000   11.500000
  Q      6.340000   15.290000   22.310000
  Q      6.280000   16.430000   21.350000
  Q      6.320000   15.640000   21.540000
  Q      4.290000   16.830000    4.690000
  Q      3.520000   17.640000    5.600000
  Q      4.220000   17.340000    5.330000
  Q      7.300000   10.200000   20.170000
  Q      6.350000   11.180000   20.860000
  Q      6.630000   10.680000   20.230000
  Q     19.090000   18.220000    8.120000
  Q     18.380000   16.940000    8.030000
  Q     18.810000   17.560000    7.730000
  Q      3.810000    9.050000    9.660000
  Q      2.320000    9.080000    9.330000
  Q      3.000000    8.980000    9.820000
  Q      9.390000    5.270000   14.980000
  Q      9.620000    6.500000   14.240000
  Q      9.830000    5.740000   14.460000
  Q      7.980000   22.070000   12.500000
  Q      8.450000   20.870000   11.700000
  Q      7.990000   21.560000   11.810000
  Q     13.550000    6.510000   20.820000
  Q     13.390000    6.290000   22.330000
  Q     13.150000    6.610000   21.570000
  Q     13.120000   18.000000   13.730000
  Q     14.370000   18.060000   14.660000
  Q     13.520000   18.070000   14.480000
  Q     15.280000   10.510000   20.040000
  Q     14.380000    9.500000   19.280000
  Q     14.550000   10.200000   19.780000
  Q     14.660000    5.780000   19.370000
  Q     15.010000    4.410000   20.070000
  Q     14.900000    5.250000   20.010000
  Q      9.030000   18.650000    2.710000
  Q     10.310000   19.500000    2.590000
  Q      9.860000   18.770000    2.590000
  Q      2.720000    5.530000   10.020000
  Q      3.410000    6.800000   10.610000
  Q      3.340000    5.980000   10.390000
  Q     14.280000   16.070000   12.050000
  Q     14.550000   14.600000   12.300000
  Q     14.750000   15.370000   12.060000
  Q     19.400000   13.180000   11.790000
  Q     19.770000   13.530000   10.330000
  Q     19.270000   13.440000   11.020000
  Q      7.240000    4.210000   11.200000
  Q      7.280000    2.910000   10.490000
  Q      6.930000    3.480000   11.000000
  Q      3.950000   14.450000    4.260000
  Q      3.190000   14.860000    2.970000
  Q      3.690000   14.970000    3.650000
  Q      7.240000   19.310000    3.990000
  Q      7.890000   17.930000    4.270000
  Q      7.440000   18.490000    3.830000
  Q      6.300000    5.670000    3.070000
  Q      5.430000    5.140000    1.810000
  Q      5.890000    5.660000    2.300000
  Q      5.730000   16.010000    2.760000
  Q      7.240000   15.350000    2.920000
  Q      6.430000   15.500000    2.580000
  Q     14.940000   15.950000   10.200000
  Q     14.290000   15.840000    8.840000
  Q     14.790000   16.230000    9.400000
  Q      4.900000    5.510000   13.720000
  Q      6.150000    6.390000   13.890000
  Q      5.410000    6.030000   14.150000
  Q     19.190000   10.700000    6.980000
  Q     20.330000   11.770000    7.030000
  Q     19.880000   11.120000    7.300000
  Q     10.640000   12.740000   18.410000
  Q     11.320000   12.500000   19.780000
  Q     11.320000   12.690000   18.950000
  Q      6.720000    5.070000    5.340000
  Q      8.020000    5.360000    4.460000
  Q      7.270000    4.940000    4.690000
  Q      6.860000   19.960000    8.410000
  Q      7.330000   20.300000    9.720000
  Q      7.430000   19.910000    9.000000
  Q     13.610000   15.200000   15.980000
  Q     14.390000   14.230000   16.930000
  Q     14.290000   14.820000   16.300000
  Q      5.720000    8.990000    2.700000
  Q      6.260000   10.030000    1.760000
  Q      5.950000    9.260000    1.950000
  Q     16.200000   12.330000    4.610000
  Q     16.220000   13.720000    3.970000
  Q     16.080000   12.890000    4.000000
  Q     15.160000    6.060000   15.040000
  Q     15.610000    4.610000   15.110000
  Q     15.360000    5.310000   14.740000
  Q      9.180000    2.980000    7.520000
  Q     10.140000    4.140000    7.950000
  Q      9.880000    3.330000    7.830000
  Q      4.640000   20.430000    6.960000
  Q      5.220000   19.020000    6.500000
  Q      5.230000   19.830000    6.800000
  Q      7.510000   12.010000    4.890000
  Q      6.400000   12.250000    3.930000
  Q      6.720000   12.090000    4.680000
  Q     10.590000   17.230000    4.060000
  Q      9.880000   17.180000    5.340000
  Q     10.340000   16.840000    4.700000
  Q     14.240000   18.040000    9.970000
  Q     14.490000   19.640000   10.120000
  Q     14.030000   18.870000   10.000000
  Q      8.570000    6.880000   17.130000
  Q      7.390000    6.390000   18.010000
  Q      7.880000    6.970000   17.620000
  Q      3.580000   19.190000    9.800000
  Q      3.680000   20.690000    9.930000
  Q      3.350000   19.950000   10.060000
  Q     12.250000   16.040000    5.370000
  Q     13.730000   15.810000    5.680000
  Q     12.980000   16.210000    5.750000
  Q     10.540000    2.600000    9.620000
  Q     10.450000    1.250000   10.390000
  Q     10.500000    2.080000   10.340000
  Q     11.270000   20.990000   12.010000
  Q     11.310000   22.220000   12.900000
  Q     11.560000   21.460000   12.620000
  Q     13.470000    1.040000   17.140000
  Q     11.950000    1.480000   17.400000
  Q     12.750000    1.260000   17.600000
  Q      5.740000    6.070000    7.170000
  Q      4.710000    5.950000    6.160000
  Q      5.420000    6.200000    6.410000
  Q     10.320000    8.910000    3.380000
  Q     11.850000    8.390000    3.510000
  Q     11.070000    8.670000    3.780000
  Q      9.240000   20.830000    8.830000
  Q     10.590000   21.570000    8.750000
  Q      9.750000   21.480000    8.770000
  Q     14.020000    7.490000   17.970000
  Q     15.510000    7.570000   18.120000
  Q     14.730000    7.680000   18.380000
  Q     19.460000   10.210000   14.960000
  Q     18.110000   10.600000   14.190000
  Q     18.880000   10.230000   14.280000
  Q      3.460000   13.130000   17.780000
  Q      3.480000   14.530000   17.540000
  Q      3.790000   13.790000   17.460000
  Q      1.300000   10.870000    7.360000
  Q      2.730000   11.410000    7.400000
  Q      1.970000   11.260000    7.710000
  Q     14.390000   18.380000    8.110000
  Q     14.570000   17.680000    6.780000
  Q     14.660000   18.320000    7.290000
  Q      2.370000    8.230000   14.020000
  Q      3.490000    7.400000   14.640000
  Q      2.760000    7.820000   14.650000
  Q     15.400000   21.840000    7.000000
  Q     14.860000   20.420000    7.360000
  Q     15.030000   21.240000    7.500000
  Q     15.730000   19.280000   13.850000
  Q     16.690000   18.220000   13.320000
  Q     16.110000   18.530000   13.870000
  Q      6.750000   10.280000    7.010000
  Q      6.330000   10.330000    8.400000
  Q      6.290000   10.550000    7.630000
  Q      2.440000    4.490000   13.120000
  Q      3.410000    4.660000   11.940000
  Q      3.210000    4.580000   12.760000
  Q     20.880000   11.400000   11.900000
  Q     22.040000   11.450000   11.140000
  Q     21.370000   11.080000   11.400000
  Q      4.570000   10.730000    6.540000
  Q      3.480000    9.850000    5.720000
  Q      4.030000   10.520000    5.890000
  Q     12.550000   20.350000    9.170000
  Q     13.170000   21.600000    8.750000
  Q     12.570000   21.180000    9.040000
  Q     11.750000    2.640000    6.700000
  Q     12.920000    3.440000    6.170000
  Q     12.400000    2.800000    6.170000
  Q     18.660000   11.320000    8.980000
  Q     18.310000   11.850000   10.400000
  Q     18.220000   11.330000    9.730000
  Q     17.140000    7.740000   13.520000
  Q     16.250000    7.040000   12.500000
  Q     16.590000    7.690000   12.920000
  Q     14.210000    4.980000   10.180000
  Q     14.500000    5.850000    9.150000
  Q     13.990000    5.350000    9.510000
  Q     10.170000    2.260000   17.480000
  Q      9.970000    1.530000   16.030000
  Q     10.050000    1.570000   16.920000
  Q     17.560000    3.570000   16.240000
  Q     16.280000    3.090000   17.000000
  Q     16.740000    3.270000   16.320000
  Q      4.880000    5.190000    9.310000
  Q      6.140000    4.390000    9.040000
  Q      5.450000    4.780000    8.820000
  Q     21.930000   10.590000   15.200000
  Q     21.400000    9.830000   16.570000
  Q     21.360000   10.270000   15.820000
  Q     17.010000   11.660000    6.710000
  Q     17.820000   12.750000    6.210000
  Q     17.330000   12.100000    6.110000
  Q     15.500000    4.920000   12.790000
  Q     16.330000    4.610000   11.360000
  Q     15.820000    5.040000   11.970000
  Q     15.790000    6.160000    4.260000
  Q     15.150000    6.130000    5.600000
  Q     15.560000    6.490000    4.960000
  Q      0.100000   12.800000    5.210000
  Q      0.590000   13.020000    6.540000
  Q      0.150000   12.620000    6.000000

----------------------------
CARTESIAN COORDINATES (A.U.)
----------------------------
  NO LB      ZA    FRAG     MASS         X           Y           Z
   0 C     6.0000    0    12.011   18.972850   23.035762   18.141371
   1 H     1.0000    0     1.008   19.577563   22.355460   16.289439
   2 H     1.0000    0     1.008   20.182275   24.566440   18.708289
   3 C     6.0000    0    12.011   19.199618   20.862577   19.879919
   4 H     1.0000    0     1.008   18.500419   21.505083   21.769645
   5 H     1.0000    0     1.008   17.933501   19.275207   19.142926
   6 C     6.0000    0    12.011   21.750748   19.464179   20.220070
   7 H     1.0000    0     1.008   23.451501   20.579118   20.087789
   8 H     1.0000    0     1.008   21.883029   17.933501   18.897261
   9 C     6.0000    0    12.011   21.901926   18.027987   22.808994
  10 H     1.0000    0     1.008   20.390145   16.516206   22.922378
  11 H     1.0000    0     1.008   21.448392   19.350796   24.339673
  12 O     8.0000    0    15.999   24.453056   17.158713   22.979070
  13 H     1.0000    0     1.008   24.868796   16.818563   24.774310
  14 O     8.0000    0    15.999   16.402823   23.659371   17.952398
  15 H     1.0000    0     1.008   16.213850   24.566440   16.383926
  16 O     8.0000    0    15.999   15.004426   27.476618   21.864131
  17 H     1.0000    0     1.008   13.473747   27.797871   22.808994
  18 H     1.0000    0     1.008   14.909939   25.927043   21.013755
  19 O     8.0000    0    15.999   28.194714   18.160268   19.388590
  20 H     1.0000    0     1.008   29.593111   17.102022   19.218515
  21 H     1.0000    0     1.008   27.117570   17.366583   20.579118
  22 O     8.0000    0    15.999   19.898816   22.506638   26.815214
  23 H     1.0000    0     1.008   20.220070   22.336563   28.629351
  24 H     1.0000    0     1.008   18.065782   22.449946   26.682933
  25 O     8.0000    0    15.999   16.913049   26.796317   13.983973
  26 H     1.0000    0     1.008   17.990193   28.119125   14.550891
  27 H     1.0000    0     1.008   15.457960   27.684488   13.417056
  28 O     8.0000    0    15.999   17.820117   14.248535   15.703624
  29 H     1.0000    0     1.008   16.270542   14.494199   14.777658
  30 H     1.0000    0     1.008   17.158713   14.702069   17.347686
  31 O     8.0000    0    15.999   21.977515   14.097357   12.245425
  32 H     1.0000    0     1.008   20.692501   14.531994   13.398158
  33 H     1.0000    0     1.008   21.523981   14.758761   10.563569
  34 O     8.0000    0    15.999   17.744528   29.706495   25.927043
  35 H     1.0000    0     1.008   19.464179   29.574214   26.475063
  36 H     1.0000    0     1.008   17.328789   28.629351   24.509748
  37 O     8.0000    0    15.999   22.884583   26.078221   24.944385
  38 H     1.0000    0     1.008   21.939720   24.906590   25.927043
  39 H     1.0000    0     1.008   22.941275   27.495515   26.172707
  40 O     8.0000    0    15.999   12.094247   17.007535   18.802775
  41 H     1.0000    0     1.008   13.587131   15.968186   19.086234
  42 H     1.0000    0     1.008   12.132042   18.235857   20.144481
  43 O     8.0000    0    15.999   18.160268   21.958618   10.714747
  44 H     1.0000    0     1.008   18.141371   23.338118   11.772994
  45 H     1.0000    0     1.008   18.387035   22.487741    9.013994
  46 O     8.0000    0    15.999   25.927043   17.272097   14.286330
  47 H     1.0000    0     1.008   26.134912   17.706734   16.081569
  48 H     1.0000    0     1.008   24.679823   16.138261   14.040665
  49 O     8.0000    0    15.999   15.779213   14.286330   20.975960
  50 H     1.0000    0     1.008   14.796556   15.080015   22.260974
  51 H     1.0000    0     1.008   16.081569   12.642268   21.618467
  52 O     8.0000    0    15.999   18.198063   31.709605   20.503529
  53 H     1.0000    0     1.008   17.083124   30.367899   20.957063
  54 H     1.0000    0     1.008   19.086234   30.991509   19.067337
  55 O     8.0000    0    15.999   15.344576   17.631145   11.565124
  56 H     1.0000    0     1.008   16.950843   18.594905   11.413946
  57 H     1.0000    0     1.008   14.909939   16.799665    9.958857
  58 O     8.0000    0    15.999   10.412391   28.534865   24.339673
  59 H     1.0000    0     1.008   10.280110   28.459276   26.059323
  60 H     1.0000    0     1.008    9.184069   29.782084   23.697166
  61 O     8.0000    0    15.999   26.966392   17.139816   27.363234
  62 H     1.0000    0     1.008   26.531755   18.916159   26.985289
  63 H     1.0000    0     1.008   28.194714   16.554001   26.116015
  64 O     8.0000    0    15.999   17.744528   23.621577   32.182036
  65 H     1.0000    0     1.008   16.024878   23.357015   32.559981
  66 H     1.0000    0     1.008   17.687837   25.076666   30.991509
  67 O     8.0000    0    15.999   24.396364   27.457721   16.100467
  68 H     1.0000    0     1.008   24.679823   26.323885   14.569788
  69 H     1.0000    0     1.008   24.717618   26.172707   17.461069
  70 O     8.0000    0    15.999   33.315872   15.911494   18.991748
  71 H     1.0000    0     1.008   33.240283   17.668939   18.292549
  72 H     1.0000    0     1.008   33.164694   15.873700   20.768090
  73 O     8.0000    0    15.999   24.736515   13.700514   30.367899
  74 H     1.0000    0     1.008   25.322330   14.891042   29.045091
  75 H     1.0000    0     1.008   24.358570   12.132042   29.630906
  76 O     8.0000    0    15.999   20.711398    9.921062   17.876809
  77 H     1.0000    0     1.008   22.449946   10.374596   18.235857
  78 H     1.0000    0     1.008   19.804330   11.546227   17.461069
  79 O     8.0000    0    15.999   10.506877   24.963282   16.913049
  80 H     1.0000    0     1.008   10.601364   26.191604   15.646932
  81 H     1.0000    0     1.008   10.922617   23.451501   15.854802
  82 O     8.0000    0    15.999   16.931946   15.987083   27.438823
  83 H     1.0000    0     1.008   18.160268   16.138261   28.686043
  84 H     1.0000    0     1.008   16.875254   17.517761   26.380577
  85 O     8.0000    0    15.999   30.575769   13.114699   15.892597
  86 H     1.0000    0     1.008   29.385241   14.191843   14.891042
  87 H     1.0000    0     1.008   31.671810   14.229638   16.988638
  88 O     8.0000    0    15.999   12.906829   31.199378   18.368138
  89 H     1.0000    0     1.008   13.379261   30.065543   19.690946
  90 H     1.0000    0     1.008   14.116254   32.559981   18.689391
  91 O     8.0000    0    15.999   29.555317   21.864131   15.363473
  92 H     1.0000    0     1.008   27.911255   21.637364   14.720967
  93 H     1.0000    0     1.008   29.725392   21.259419   16.988638
  94 O     8.0000    0    15.999   11.924172   29.630906   13.341467
  95 H     1.0000    0     1.008   11.716302   30.235618   14.985528
  96 H     1.0000    0     1.008   10.469083   29.971056   12.453295
  97 O     8.0000    0    15.999   19.804330   30.235618   15.798110
  98 H     1.0000    0     1.008   21.467289   29.441933   15.457960
  99 H     1.0000    0     1.008   19.955508   31.955269   15.268987
 100 O     8.0000    0    15.999   15.552446   33.259180   11.735199
 101 H     1.0000    0     1.008   15.609138   34.884344   12.491090
 102 H     1.0000    0     1.008   14.267432   32.257625   12.472192
 103 O     8.0000    0    15.999   12.547782   21.448392   21.202727
 104 H     1.0000    0     1.008   13.662720   22.279871   19.993302
 105 H     1.0000    0     1.008   11.036001   22.544433   21.013755
 106 O     8.0000    0    15.999   24.774310   24.396364   20.125583
 107 H     1.0000    0     1.008   23.753858   24.963282   21.505083
 108 H     1.0000    0     1.008   26.002632   23.451501   21.089344
 109 O     8.0000    0    15.999   14.550891   21.580672   26.456166
 110 H     1.0000    0     1.008   13.568234   21.391700   24.831001
 111 H     1.0000    0     1.008   13.473747   20.957063   27.778974
 112 O     8.0000    0    15.999   28.345892   22.109796   23.205837
 113 H     1.0000    0     1.008   28.912810   20.730296   22.166488
 114 H     1.0000    0     1.008   29.347447   22.298768   24.717618
 115 Q     0.6645    0     0.000    6.614041   31.123789   20.503529
 116 Q     0.6645    0     0.000    4.724315   29.838776   22.109796
 117 Q    -1.3290    0     0.000    6.009329   30.708050   21.883029
 118 Q     0.6645    0     0.000    0.642507   28.761632   21.353905
 119 Q     0.6645    0     0.000    2.059801   27.363234   23.716063
 120 Q    -1.3290    0     0.000    1.757445   27.760077   22.147590
 121 Q     0.6645    0     0.000   27.041981   30.991509    5.612487
 122 Q     0.6645    0     0.000   28.232508   33.240283    6.500658
 123 Q    -1.3290    0     0.000   28.251406   31.917474    5.820356
 124 Q     0.6645    0     0.000   24.755412   23.375912   34.204043
 125 Q     0.6645    0     0.000   27.363234   21.864131   33.901687
 126 Q    -1.3290    0     0.000   26.361680   23.186940   33.788303
 127 Q     0.6645    0     0.000    7.766774   24.282981    3.231432
 128 Q     0.6645    0     0.000    9.486425   26.210501    3.987322
 129 Q    -1.3290    0     0.000    9.127377   24.774310    3.571582
 130 Q     0.6645    0     0.000    7.936850   23.886138   10.790336
 131 Q     0.6645    0     0.000   10.166727   25.152255   10.676953
 132 Q    -1.3290    0     0.000    8.673843   25.152255   10.960412
 133 Q     0.6645    0     0.000   23.867241   26.928597    5.461309
 134 Q     0.6645    0     0.000   26.248296   25.945940    6.708528
 135 Q    -1.3290    0     0.000   25.265638   27.098673    6.141610
 136 Q     0.6645    0     0.000    9.373042   32.163139   17.631145
 137 Q     0.6645    0     0.000    6.708528   32.522187   15.779213
 138 Q    -1.3290    0     0.000    7.747877   32.446598   17.158713
 139 Q     0.6645    0     0.000   22.015309    9.448631   28.515967
 140 Q     0.6645    0     0.000   22.355460    8.144720   31.067098
 141 Q    -1.3290    0     0.000   22.827892    8.711637   29.593111
 142 Q     0.6645    0     0.000   23.149145   21.864131    5.914843
 143 Q     0.6645    0     0.000   25.719173   20.994857    4.762110
 144 Q    -1.3290    0     0.000   24.679823   21.316111    5.933740
 145 Q     0.6645    0     0.000   14.116254    5.121158   24.131803
 146 Q     0.6645    0     0.000   13.492645    4.478651   26.928597
 147 Q    -1.3290    0     0.000   14.343021    4.403062   25.549097
 148 Q     0.6645    0     0.000   34.525296   15.987083   38.172468
 149 Q     0.6645    0     0.000   35.602440   13.360364   37.983495
 150 Q    -1.3290    0     0.000   35.167803   14.777658   37.416577
 151 Q     0.6645    0     0.000   28.742734   28.629351   36.207153
 152 Q     0.6645    0     0.000   28.175817   25.794762   35.867002
 153 Q    -1.3290    0     0.000   28.591556   27.136467   36.641790
 154 Q     0.6645    0     0.000   11.678508   16.232747   32.352111
 155 Q     0.6645    0     0.000   10.261213   16.667385   34.808755
 156 Q    -1.3290    0     0.000   10.431288   16.402823   33.315872
 157 Q     0.6645    0     0.000   38.304749   24.453056   27.098673
 158 Q     0.6645    0     0.000   37.548858   22.053104   25.889248
 159 Q    -1.3290    0     0.000   37.983495   23.527090   25.851454
 160 Q     0.6645    0     0.000    7.124268   31.955269   28.421481
 161 Q     0.6645    0     0.000    4.100706   32.087550   28.440378
 162 Q    -1.3290    0     0.000    5.574692   31.615118   28.893913
 163 Q     0.6645    0     0.000   26.153810   19.785433    8.957302
 164 Q     0.6645    0     0.000   26.777419   18.405933   11.395049
 165 Q    -1.3290    0     0.000   26.966392   18.802775    9.864370
 166 Q     0.6645    0     0.000   25.794762    3.155843   28.289200
 167 Q     0.6645    0     0.000   28.478173    3.288123   29.423036
 168 Q    -1.3290    0     0.000   27.098673    2.551130   29.007296
 169 Q     0.6645    0     0.000   31.274968    5.612487   19.124028
 170 Q     0.6645    0     0.000   32.503290    7.502213   17.423275
 171 Q    -1.3290    0     0.000   32.352111    6.746322   18.764981
 172 Q     0.6645    0     0.000   21.580672   14.645378   31.048200
 173 Q     0.6645    0     0.000   20.503529   16.213850   33.108002
 174 Q    -1.3290    0     0.000   20.409042   15.306782   31.860783
 175 Q     0.6645    0     0.000   24.793207   20.881474   39.551968
 176 Q     0.6645    0     0.000   23.829447   23.319220   41.120441
 177 Q    -1.3290    0     0.000   23.678268   21.845234   40.251167
 178 Q     0.6645    0     0.000   27.023084   39.627557    8.617151
 179 Q     0.6645    0     0.000   26.059323   37.284297    9.750987
 180 Q    -1.3290    0     0.000   26.002632   38.437030    8.711637
 181 Q     0.6645    0     0.000   11.054898    4.686521   30.708050
 182 Q     0.6645    0     0.000   13.473747    3.836144   32.352111
 183 Q    -1.3290    0     0.000   12.698960    4.516445   31.161584
 184 Q     0.6645    0     0.000   34.884344   28.648248   19.464179
 185 Q     0.6645    0     0.000   34.468605   31.463940   20.465734
 186 Q    -1.3290    0     0.000   34.411913   30.216721   19.407487
 187 Q     0.6645    0     0.000   22.204282   37.227605   31.577324
 188 Q     0.6645    0     0.000   24.377467   35.602440   30.556872
 189 Q    -1.3290    0     0.000   23.508193   36.358331   31.671810
 190 Q     0.6645    0     0.000    4.762110   19.388590    5.442411
 191 Q     0.6645    0     0.000    4.062911   17.498864    7.672288
 192 Q    -1.3290    0     0.000    3.873939   18.746083    6.727425
 193 Q     0.6645    0     0.000   18.424830   21.561775    4.478651
 194 Q     0.6645    0     0.000   18.670494   24.471953    5.102261
 195 Q    -1.3290    0     0.000   19.161823   22.922378    5.045569
 196 Q     0.6645    0     0.000    8.919507   20.673604   26.796317
 197 Q     0.6645    0     0.000    9.089583   19.180720   29.290755
 198 Q    -1.3290    0     0.000    9.543117   19.634255   27.835666
 199 Q     0.6645    0     0.000   11.149384   34.015070    5.102261
 200 Q     0.6645    0     0.000    9.562014   34.109557    2.702308
 201 Q    -1.3290    0     0.000    9.788781   33.863892    4.289678
 202 Q     0.6645    0     0.000   32.692262   27.646693   27.627796
 203 Q     0.6645    0     0.000   30.556872   27.457721   29.857673
 204 Q    -1.3290    0     0.000   32.049755   27.627796   29.215166
 205 Q     0.6645    0     0.000    5.858151   26.361680   13.001316
 206 Q     0.6645    0     0.000    3.949528   26.210501   15.268987
 207 Q    -1.3290    0     0.000    4.535343   26.701830   13.889487
 208 Q     0.6645    0     0.000    7.162062    5.555795   18.424830
 209 Q     0.6645    0     0.000    9.240761    5.669178   20.541323
 210 Q    -1.3290    0     0.000    7.955747    5.064466   19.766535
 211 Q     0.6645    0     0.000   22.827892   31.350557    2.513336
 212 Q     0.6645    0     0.000   20.220070   32.446598    3.325918
 213 Q    -1.3290    0     0.000   21.259419   31.312762    2.910178
 214 Q     0.6645    0     0.000   21.807440    3.911733   26.796317
 215 Q     0.6645    0     0.000   23.527090    6.217199   27.608899
 216 Q    -1.3290    0     0.000   23.149145    4.818802   26.777419
 217 Q     0.6645    0     0.000   34.846550   10.865925   12.396603
 218 Q     0.6645    0     0.000   37.737831   11.262768   11.961966
 219 Q    -1.3290    0     0.000   36.188255   11.621816   11.980864
[...]
 332   Q   :   -0.062778628    0.219798121   -0.111861530
 333   Q   :   -0.127793202   -0.264515899   -0.127167722
 334   Q   :    0.200496460    0.032854548    0.242096626
 335   Q   :   -0.238203522    0.184711921    0.023630298
 336   Q   :    0.175894312   -0.032583478    0.162163953
 337   Q   :    0.047001027   -0.149788211   -0.188877918
 338   Q   :   -0.020542757   -0.082443265    0.281300214
 339   Q   :   -0.222896898   -0.001855343   -0.174483542
 340   Q   :    0.246370218    0.079006591   -0.114392194
 341   Q   :    0.080133497   -0.263269385   -0.051512921
 342   Q   :   -0.264605415    0.111124441    0.012185755
 343   Q   :    0.177117987    0.152763900    0.038452356
 344   Q   :   -0.214679794    0.109319311   -0.060919388
 345   Q   :    0.040799805   -0.238500871    0.111240509
 346   Q   :    0.173988529    0.113656795   -0.061214774
 347   Q   :   -0.054085240    0.225483380   -0.144848759
 348   Q   :   -0.113638107   -0.247538924    0.001002106
 349   Q   :    0.166919904    0.031888776    0.149641509
 350   Q   :   -0.023985788   -0.010573206    0.233404580
 351   Q   :    0.017550611   -0.213799104   -0.211491906
 352   Q   :    0.017508777    0.223252732   -0.033725641
 353   Q   :    0.075372539    0.266664160   -0.043089093
 354   Q   :    0.155620200   -0.235887204   -0.043138227
 355   Q   :   -0.237135415   -0.032890442    0.087952237
 356   Q   :    0.013755491    0.072431928    0.292360139
 357   Q   :   -0.045507398    0.198158585   -0.170101298
 358   Q   :    0.024793322   -0.263566538   -0.122025127
 359   Q   :   -0.264138665   -0.107566339    0.033980020
 360   Q   :    0.160611821   -0.056427812   -0.245179541
 361   Q   :    0.100731576    0.163028450    0.203946467
 362   Q   :    0.220734124   -0.117163209    0.130425005
 363   Q   :   -0.087119215   -0.075999382   -0.254470229
 364   Q   :   -0.147563753    0.199263345    0.131089002
 365   Q   :   -0.208281990    0.085979129   -0.183350784
 366   Q   :    0.160993205   -0.248777042   -0.025359539
 367   Q   :    0.042679037    0.161497464    0.214620907
 368   Q   :    0.229036419   -0.109770335    0.098770123
 369   Q   :   -0.161219799   -0.073011974   -0.214071492
 370   Q   :   -0.071996081    0.181170210    0.121535465
 371   Q   :    0.131249693   -0.252272151   -0.093572476
 372   Q   :    0.052600264    0.247105693   -0.108764996
 373   Q   :   -0.182679691   -0.001443970    0.197950828
 374   Q   :    0.119089199   -0.112033092   -0.242660053
 375   Q   :    0.117873520    0.003572054    0.235174134
 376   Q   :   -0.231008715    0.092592651    0.007864391
 377   Q   :   -0.115634327   -0.248297598   -0.007152453
 378   Q   :   -0.128980992    0.236933778   -0.102124490
 379   Q   :    0.235954012    0.011292105    0.108999556
 380   Q   :   -0.151818855    0.199651509   -0.044372387
 381   Q   :    0.272972073   -0.013658727    0.055586964
 382   Q   :   -0.110949043   -0.175759111   -0.008287232
 383   Q   :   -0.203248301   -0.194707067   -0.036904497
 384   Q   :   -0.018261088    0.214586162    0.118510805
 385   Q   :    0.226280159   -0.031136875   -0.090718848
 386   Q   :   -0.233044055   -0.154104547   -0.000059671
 387   Q   :    0.221712621   -0.041423757   -0.169760499
 388   Q   :    0.015581050    0.196871998    0.169013953
 389   Q   :   -0.034575319   -0.019248929    0.274590211
 390   Q   :   -0.143627253    0.201891928   -0.157183840
 391   Q   :    0.183207285   -0.180961744   -0.120948169
 392   Q   :    0.084522490    0.269218165   -0.149599470
 393   Q   :   -0.296404265   -0.096529006    0.041074263
 394   Q   :    0.209579242   -0.174866170    0.108998162
 395   Q   :   -0.027681738    0.078537718    0.247593664
 396   Q   :    0.114721573    0.143423078   -0.218518485
 397   Q   :   -0.083917224   -0.223532125   -0.042514468
 398   Q   :   -0.249099595    0.037830035   -0.128712167
 399   Q   :    0.028705256   -0.203715133    0.208795727
 400   Q   :    0.212599450    0.156047076   -0.087699725
 401   Q   :   -0.079922528   -0.125415491   -0.239741593
 402   Q   :    0.276887113    0.065803264    0.055183102
 403   Q   :   -0.190783288    0.057716732    0.185171223
 404   Q   :    0.104890386   -0.236948929   -0.070446712
 405   Q   :    0.103665534    0.226722213    0.166753484
 406   Q   :   -0.214306277    0.018973349   -0.096327975
 407   Q   :    0.105514887   -0.169551224   -0.231135844
 408   Q   :   -0.258775727    0.136700471   -0.013523305
 409   Q   :    0.149095470    0.034608925    0.242154150
 410   Q   :   -0.036764559   -0.179014430    0.131272220
 411   Q   :   -0.026412438    0.242164018    0.028103677
 412   Q   :    0.062070380   -0.064053319   -0.158249042
 413   Q   :    0.054630125   -0.025592848    0.241658360
 414   Q   :   -0.220995536   -0.054506842   -0.145436155
 415   Q   :    0.170402325    0.093978641   -0.094598374
 416   Q   :    0.005247040   -0.101483806    0.278229470
 417   Q   :   -0.017426687    0.319554956   -0.051499224
 418   Q   :    0.012201162   -0.217983082   -0.227098124
 419   Q   :    0.010881927   -0.187310009   -0.225814817
 420   Q   :   -0.281038362    0.112388305    0.097681653
 421   Q   :    0.272639699    0.079268125    0.122351448
 422   Q   :    0.238183455   -0.154823697   -0.006642420
 423   Q   :   -0.084445484    0.170078949    0.220994570
 424   Q   :   -0.158970544   -0.011722832   -0.203056722
 425   Q   :    0.102531822    0.254014498    0.173203429
 426   Q   :   -0.167269852   -0.231731422    0.133146891
 427   Q   :    0.064059589   -0.021173802   -0.308674190
 428   Q   :    0.286608562    0.025264915   -0.075422210
 429   Q   :   -0.228255975    0.030148577   -0.182458301
 430   Q   :   -0.060885908   -0.050503390    0.249364577
 431   Q   :   -0.154504532   -0.144963765    0.178483111
 432   Q   :   -0.092549228    0.273471787   -0.071817796
 433   Q   :    0.253921793   -0.122949360   -0.109402369
 434   Q   :    0.006819253    0.159399164    0.241250746
 435   Q   :    0.154638289   -0.235312511   -0.017044384
 436   Q   :   -0.167580373    0.086640183   -0.218836895
 437   Q   :    0.133410341   -0.034717648   -0.243622657
 438   Q   :    0.092951580   -0.113931493    0.248500413
 439   Q   :   -0.227683013    0.148861071   -0.004922629
 440   Q   :   -0.115271874   -0.024548392   -0.238943890
 441   Q   :    0.249004388   -0.000781818    0.047752477
 442   Q   :   -0.127950508    0.032086314    0.192028196
 443   Q   :    0.262103292    0.110350881    0.083767710
 444   Q   :   -0.050373100   -0.193309506   -0.149434224
 445   Q   :   -0.212464223    0.091976916    0.065980098
 446   Q   :   -0.085857407    0.151380328   -0.211211201
 447   Q   :    0.034117042   -0.292458167    0.003486169
 448   Q   :    0.055742659    0.129930904    0.209453347
 449   Q   :   -0.267355242   -0.027256756    0.036603716
 450   Q   :    0.136536939    0.247842296    0.002590014
 451   Q   :    0.133523918   -0.205798335   -0.043215971
 452   Q   :   -0.216488978   -0.146577407   -0.128095662
 453   Q   :    0.009935036    0.267039306    0.067130919
 454   Q   :    0.202358389   -0.113183059    0.065165194
 455   Q   :   -0.164716916    0.232446425   -0.006871377
 456   Q   :   -0.079891928   -0.267756654    0.090825117
 457   Q   :    0.238057153    0.031199658   -0.080925216
 458   Q   :    0.052959507   -0.095995688    0.267378094
 459   Q   :    0.169505067    0.030070506   -0.217723399
 460   Q   :   -0.215030305    0.064495292   -0.057680228
 461   Q   :    0.121364905    0.272060165    0.061184125
 462   Q   :    0.129474258   -0.172303447   -0.165445431
 463   Q   :   -0.253349508   -0.095492464    0.105003273
 464   Q   :    0.073729079   -0.185341570    0.194441174
 465   Q   :   -0.171163810   -0.059476131   -0.226798827
 466   Q   :    0.093289010    0.244824145    0.021189572
 467   Q   :   -0.054082131    0.249296308    0.052856105
 468   Q   :    0.160623283   -0.182068973    0.141604358
 469   Q   :   -0.105743466   -0.075720660   -0.192573676
 470   Q   :    0.119590996   -0.001924464    0.235079016
 471   Q   :   -0.163088518   -0.193868423   -0.162915974
 472   Q   :    0.039481102    0.202855867   -0.080410437
 473   Q   :   -0.198292216    0.145679537    0.066154669
 474   Q   :    0.226832475   -0.034626623    0.108407009
 475   Q   :   -0.024584270   -0.107741377   -0.172176882
 476   Q   :    0.033436675   -0.087010972    0.248565279
 477   Q   :   -0.162700279   -0.128249042   -0.173146175
 478   Q   :    0.140015222    0.216623265   -0.088847409
 479   Q   :   -0.152013495   -0.171137103   -0.157118455
 480   Q   :    0.242437217    0.092048167   -0.092982863
 481   Q   :   -0.078360576    0.070997693    0.253579111
 482   Q   :   -0.211269020   -0.105750886   -0.102990980
 483   Q   :    0.153847452    0.246031811   -0.106753323
 484   Q   :    0.068514250   -0.136595086    0.205010649
 485   Q   :   -0.203363479    0.006742928   -0.140089196
 486   Q   :   -0.022806004   -0.063134438    0.268729619
 487   Q   :    0.221622287    0.069227475   -0.116034661
 488   Q   :   -0.164815374    0.042613848    0.210581272
 489   Q   :    0.196627042    0.120358756   -0.054774212
 490   Q   :   -0.037326194   -0.175712505   -0.152870130
 491   Q   :   -0.219463643    0.032270528   -0.199945641
 492   Q   :   -0.058739383    0.145940922    0.250660317
 493   Q   :    0.272658999   -0.182907942   -0.047079328
 494   Q   :   -0.229885560    0.110442009   -0.096252580
 495   Q   :    0.024825221   -0.181912937    0.196601004
 496   Q   :    0.208969612    0.076490210   -0.096781536
 497   Q   :   -0.083413913   -0.071723669    0.267305374
 498   Q   :    0.103060558    0.260721998   -0.038633575
 499   Q   :   -0.031901116   -0.192571606   -0.236418834
 500   Q   :    0.025317243   -0.182823224    0.214230960
 501   Q   :    0.050139039    0.287152506   -0.001226013
 502   Q   :   -0.080800965   -0.104874173   -0.221499408
 503   Q   :   -0.070427311    0.270367500    0.123830687
 504   Q   :    0.084107715   -0.239457654    0.142613514
 505   Q   :   -0.018598218   -0.023642881   -0.260924267
 506   Q   :   -0.243531996   -0.108614272   -0.114186501
 507   Q   :    0.066067679    0.259147878    0.025728962
 508   Q   :    0.167098886   -0.143631779    0.074183961
 509   Q   :   -0.208434957    0.196177738    0.052669404
 510   Q   :   -0.015392734   -0.251096690   -0.086408290
 511   Q   :    0.221386756    0.057127301    0.034794697
 512   Q   :    0.294843863   -0.022609683    0.055839912
 513   Q   :   -0.101814996    0.058661329   -0.274193939
 514   Q   :   -0.186755786   -0.040286464    0.214763319
 515   Q   :    0.098508809    0.173345189   -0.262528220
 516   Q   :   -0.137737650    0.117306245    0.180932685
 517   Q   :    0.047340533   -0.282595240    0.083522390
 518   Q   :    0.072318172   -0.252115035   -0.002889275
 519   Q   :    0.135375559    0.203418119    0.034023058
 520   Q   :   -0.206679492    0.062703676   -0.022561854
 521   Q   :    0.227317644   -0.048064646   -0.166267731
 522   Q   :   -0.152005660   -0.202025225    0.123862009
 523   Q   :   -0.077767236    0.239465022    0.039572925
 524   Q   :    0.093649608   -0.250918908   -0.098412641
 525   Q   :    0.141365525    0.277201975   -0.059749240
 526   Q   :   -0.239331686   -0.018582697    0.151824684
 527   Q   :   -0.240575838   -0.070467841   -0.133444404
 528   Q   :    0.239175820   -0.134785710   -0.025407459
 529   Q   :    0.002384066    0.196028344    0.159051148
 530   Q   :    0.019627007    0.129378665   -0.200814253
 531   Q   :   -0.019827509   -0.309863992   -0.003572276
 532   Q   :   -0.004468466    0.167498642    0.213673605
 533   Q   :   -0.115104013   -0.160859582   -0.227192707
 534   Q   :   -0.099473874    0.266107709    0.084667354
 535   Q   :    0.216981698   -0.095507081    0.143212169
 536   Q   :    0.209248425   -0.060506139   -0.135702898
 537   Q   :   -0.258057540    0.085075011   -0.077412882
 538   Q   :    0.053148097   -0.020881946    0.225460073
 539   Q   :    0.100184671   -0.046632763    0.256582391
 540   Q   :   -0.306280152   -0.114095060   -0.092149823
 541   Q   :    0.200282524    0.168606231   -0.163786237
 542   Q   :   -0.215222207    0.056376480   -0.122127123
 543   Q   :    0.219709545   -0.084758042   -0.089427520
 544   Q   :   -0.004990489    0.046475883    0.213975283
 545   Q   :   -0.165748810   -0.241321133    0.008012022
 546   Q   :    0.273468485    0.014660014   -0.019487470
 547   Q   :   -0.105836785    0.235049646    0.022681181
 548   Q   :   -0.231215344   -0.074553708   -0.139483737
 549   Q   :    0.270808081   -0.051928643   -0.104840248
 550   Q   :   -0.035122881    0.123451468    0.249319787
 551   Q   :    0.140906775   -0.003358905    0.190759914
 552   Q   :   -0.233860609    0.113670413   -0.020867427
 553   Q   :    0.081490394   -0.113285585   -0.187905287
 554   Q   :   -0.147894675   -0.252482878    0.131925615
 555   Q   :   -0.138472501    0.283660235    0.040517256
 556   Q   :    0.282396015   -0.031838686   -0.167494321
 557   Q   :   -0.210748701   -0.142222119   -0.123443251
 558   Q   :    0.271685527    0.049548651   -0.116016386
 559   Q   :   -0.061715247    0.087555665    0.239078513
 560   Q   :   -0.092932361    0.010848049    0.247996950
 561   Q   :   -0.043652919   -0.239973590   -0.181259829
 562   Q   :    0.143348177    0.217534184   -0.068764330
 563   Q   :   -0.120087918    0.126146838   -0.215998960
 564   Q   :    0.249682189   -0.136673694   -0.018002213
 565   Q   :   -0.131878526   -0.004213358    0.232555877
 566   Q   :    0.120537461    0.186251308   -0.178814387
 567   Q   :   -0.055969091   -0.262292166   -0.061706018
 568   Q   :   -0.061109017    0.085526793    0.235646161
 569   Q   :   -0.127440826    0.265712431   -0.024948419
 570   Q   :    0.190441036   -0.084401386   -0.198696003
 571   Q   :   -0.050567162   -0.182991104    0.219451176
 572   Q   :    0.161907217   -0.101206090   -0.213606272
 573   Q   :    0.020429592   -0.082220546    0.297847007
 574   Q   :   -0.177311504    0.186564287   -0.084164033
 575   Q   :   -0.269595251   -0.028610566    0.104563682
 576   Q   :    0.049231690    0.022375022   -0.276446600
 577   Q   :    0.210078775   -0.003938024    0.171604868
 578   Q   :   -0.212753195    0.168337014    0.226468955
 579   Q   :    0.257440580    0.170301899   -0.087769990
 580   Q   :   -0.039320325   -0.335591632   -0.140079143
 581   Q   :    0.143212535    0.065950011    0.204636603
 582   Q   :   -0.164114045   -0.199399655   -0.032842583
 583   Q   :    0.005312091    0.128217338   -0.180172738
 584   Q   :    0.004617642   -0.283848838    0.032474550
 585   Q   :    0.260961976    0.163680414   -0.123583879
 586   Q   :   -0.263530376    0.125667737    0.096026734
 587   Q   :   -0.205400798   -0.044128103    0.183363707
 588   Q   :    0.185483956    0.225344653    0.012071673
 589   Q   :    0.011784636   -0.194638672   -0.203842561
 590   Q   :    0.134128624    0.010964172   -0.219745386
 591   Q   :    0.036475288    0.171153641    0.217892205
 592   Q   :   -0.173558187   -0.175794182    0.007408165
 593   Q   :    0.195319691    0.012717697    0.226411757
 594   Q   :   -0.108281859   -0.208306776   -0.131538041
 595   Q   :   -0.088933190    0.202120533   -0.094586804
 596   Q   :    0.106502988   -0.140268916    0.261489172
 597   Q   :    0.203336128    0.191415775   -0.132206649
 598   Q   :   -0.307316542   -0.057893197   -0.123704400
 599   Q   :    0.041127968    0.191684952    0.147974219
 600   Q   :   -0.020070950    0.001985567   -0.240590871
 601   Q   :   -0.028117363   -0.208309203    0.104093411
 602   Q   :    0.229029657    0.076484380   -0.015906412
 603   Q   :   -0.157858877   -0.060030792    0.247026980
 604   Q   :   -0.075300545   -0.027225585   -0.222555609
 605   Q   :   -0.171540484    0.126084422    0.160643771
 606   Q   :    0.258026862   -0.135058983    0.092078284
 607   Q   :   -0.079926221   -0.000345104   -0.255657036
 608   Q   :    0.168586238    0.089457117   -0.169349986
 609   Q   :    0.021777505   -0.140861300    0.239476847
 610   Q   :   -0.178785317    0.051530040   -0.065422045
 611   Q   :   -0.108725487   -0.154558530    0.236681385
 612   Q   :    0.182936077    0.241166550    0.057525895
 613   Q   :   -0.056436648   -0.088935325   -0.297542424
 614   Q   :   -0.089930544   -0.043613079    0.228255514
 615   Q   :    0.129906118   -0.116585597   -0.153902828
 616   Q   :   -0.047213994    0.152701575   -0.075454038
 617   Q   :    0.080272382   -0.140707818   -0.281283715
 618   Q   :   -0.144970361   -0.129425371    0.200239018
 619   Q   :    0.064763955    0.268443950    0.085861139
 620   Q   :   -0.002938660    0.088756324   -0.307073396
 621   Q   :    0.180295620    0.175441028    0.201310406
 622   Q   :   -0.182155211   -0.262746267    0.102752658

Difference to translation invariance:
           :    0.0002674351    0.0002084906    0.0000062222

Difference to rotation invariance:
           :   -0.0032905199    0.0063972293    0.0061457738

Norm of the cartesian gradient     ...    6.2118319458
RMS gradient                       ...    0.1438016530
MAX gradient                       ...    0.3355916324

-------
TIMINGS
-------

Total SCF gradient time            ...      253.112 sec

One electron gradient       ....      27.661 sec  ( 10.9%)
RI-J Coulomb gradient       ....      12.516 sec  (  4.9%)
COSX gradient               ....     166.711 sec  ( 65.9%)
XC gradient                 ....      17.747 sec  (  7.0%)

Maximum memory used throughout the entire SCFGRAD-calculation: 931.9 MB

                            ***************************************
                            *     ORCA property calculations      *
                            ***************************************

                                    ---------------------
                                    Active property flags
                                    ---------------------
   (+) Dipole Moment


------------------------------------------------------------------------------
                       ORCA ELECTRIC PROPERTIES CALCULATION
------------------------------------------------------------------------------

Dipole Moment Calculation                       ... on
Quadrupole Moment Calculation                   ... off
Polarizability Calculation                      ... off
GBWName                                         ... final022.orca.gbw
Electron density                                ... final022.orca.scfp
The origin for moment calculation is the CENTER OF MASS  = (19.843561, 21.771037 19.812219)

-------------
DIPOLE MOMENT
-------------
                                X             Y             Z
Electronic contribution:      0.85644       0.52858       0.60853
Nuclear contribution   :     -8.39573       6.86136       4.32931
                        -----------------------------------------
Total Dipole Moment    :     -7.53929       7.38994       4.93783
                        -----------------------------------------
Magnitude (a.u.)       :     11.65480
Magnitude (Debye)      :     29.62414



--------------------
Rotational spectrum 
--------------------
 
Rotational constants in cm-1:     0.001811     0.001262     0.001136 
Rotational constants in MHz :    54.302759    37.830454    34.064941 

 Dipole components along the rotational axes: 
x,y,z [a.u.] :     9.805717     6.298614    -0.098395 
x,y,z [Debye]:    24.924151    16.009805    -0.250100 

 

Timings for individual modules:

Sum of individual times         ...     1094.189 sec (=  18.236 min)
GTO integral calculation        ...       14.363 sec (=   0.239 min)   1.3 %
SCF iterations                  ...      822.399 sec (=  13.707 min)  75.2 %
SCF Gradient evaluation         ...      257.428 sec (=   4.290 min)  23.5 %
                             ****ORCA TERMINATED NORMALLY****
TOTAL RUN TIME: 0 days 0 hours 18 minutes 22 seconds 933 msec
