
                                 *****************
                                 * O   R   C   A *
                                 *****************

                                            #,                                       
                                            ###                                      
                                            ####                                     
                                            #####                                    
                                            ######                                   
                                           ########,                                 
                                     ,,################,,,,,                         
                               ,,#################################,,                 
                          ,,##########################################,,             
                       ,#########################################, ''#####,          
                    ,#############################################,,   '####,        
                  ,##################################################,,,,####,       
                ,###########''''           ''''###############################       
              ,#####''   ,,,,##########,,,,          '''####'''          '####       
            ,##' ,,,,###########################,,,                        '##       
           ' ,,###''''                  '''############,,,                           
         ,,##''                                '''############,,,,        ,,,,,,###''
      ,#''                                            '''#######################'''  
     '                                                          ''''####''''         
             ,#######,   #######,   ,#######,      ##                                
            ,#'     '#,  ##    ##  ,#'     '#,    #''#        ######   ,####,        
            ##       ##  ##   ,#'  ##            #'  '#       #        #'  '#        
            ##       ##  #######   ##           ,######,      #####,   #    #        
            '#,     ,#'  ##    ##  '#,     ,#' ,#      #,         ##   #,  ,#        
             '#######'   ##     ##  '#######'  #'      '#     #####' # '####'        



                  #######################################################
                  #                        -***-                        #
                  #          Department of theory and spectroscopy      #
                  #    Directorship and core code : Frank Neese         #
                  #        Max Planck Institute fuer Kohlenforschung    #
                  #                Kaiser Wilhelm Platz 1               #
                  #                 D-45470 Muelheim/Ruhr               #
                  #                      Germany                        #
                  #                                                     #
                  #                  All rights reserved                #
                  #                        -***-                        #
                  #######################################################


                         Program Version 5.0.3 -  RELEASE  -


 With contributions from (in alphabetic order):
   Daniel Aravena         : Magnetic Suceptibility
   Michael Atanasov       : Ab Initio Ligand Field Theory (pilot matlab implementation)
   Alexander A. Auer      : GIAO ZORA, VPT2 properties, NMR spectrum
   Ute Becker             : Parallelization
   Giovanni Bistoni       : ED, misc. LED, open-shell LED, HFLD
   Martin Brehm           : Molecular dynamics
   Dmytro Bykov           : SCF Hessian
   Vijay G. Chilkuri      : MRCI spin determinant printing, contributions to CSF-ICE
   Dipayan Datta          : RHF DLPNO-CCSD density
   Achintya Kumar Dutta   : EOM-CC, STEOM-CC
   Dmitry Ganyushin       : Spin-Orbit,Spin-Spin,Magnetic field MRCI
   Miquel Garcia          : C-PCM and meta-GGA Hessian, CC/C-PCM, Gaussian charge scheme
   Yang Guo               : DLPNO-NEVPT2, F12-NEVPT2, CIM, IAO-localization
   Andreas Hansen         : Spin unrestricted coupled pair/coupled cluster methods
   Benjamin Helmich-Paris : MC-RPA, TRAH-SCF, COSX integrals
   Lee Huntington         : MR-EOM, pCC
   Robert Izsak           : Overlap fitted RIJCOSX, COSX-SCS-MP3, EOM
   Marcus Kettner         : VPT2
   Christian Kollmar      : KDIIS, OOCD, Brueckner-CCSD(T), CCSD density, CASPT2, CASPT2-K
   Simone Kossmann        : Meta GGA functionals, TD-DFT gradient, OOMP2, MP2 Hessian
   Martin Krupicka        : Initial AUTO-CI
   Lucas Lang             : DCDCAS
   Marvin Lechner         : AUTO-CI (C++ implementation), FIC-MRCC
   Dagmar Lenk            : GEPOL surface, SMD
   Dimitrios Liakos       : Extrapolation schemes; Compound Job, initial MDCI parallelization
   Dimitrios Manganas     : Further ROCIS development; embedding schemes
   Dimitrios Pantazis     : SARC Basis sets
   Anastasios Papadopoulos: AUTO-CI, single reference methods and gradients
   Taras Petrenko         : DFT Hessian,TD-DFT gradient, ASA, ECA, R-Raman, ABS, FL, XAS/XES, NRVS
   Peter Pinski           : DLPNO-MP2, DLPNO-MP2 Gradient
   Christoph Reimann      : Effective Core Potentials
   Marius Retegan         : Local ZFS, SOC
   Christoph Riplinger    : Optimizer, TS searches, QM/MM, DLPNO-CCSD(T), (RO)-DLPNO pert. Triples
   Tobias Risthaus        : Range-separated hybrids, TD-DFT gradient, RPA, STAB
   Michael Roemelt        : Original ROCIS implementation
   Masaaki Saitow         : Open-shell DLPNO-CCSD energy and density
   Barbara Sandhoefer     : DKH picture change effects
   Avijit Sen             : IP-ROCIS
   Kantharuban Sivalingam : CASSCF convergence, NEVPT2, FIC-MRCI
   Bernardo de Souza      : ESD, SOC TD-DFT
   Georgi Stoychev        : AutoAux, RI-MP2 NMR, DLPNO-MP2 response
   Willem Van den Heuvel  : Paramagnetic NMR
   Boris Wezisla          : Elementary symmetry handling
   Frank Wennmohs         : Technical directorship


 We gratefully acknowledge several colleagues who have allowed us to
 interface, adapt or use parts of their codes:
   Stefan Grimme, W. Hujo, H. Kruse, P. Pracht,  : VdW corrections, initial TS optimization,
                  C. Bannwarth, S. Ehlert          DFT functionals, gCP, sTDA/sTD-DF
   Ed Valeev, F. Pavosevic, A. Kumar             : LibInt (2-el integral package), F12 methods
   Garnet Chan, S. Sharma, J. Yang, R. Olivares  : DMRG
   Ulf Ekstrom                                   : XCFun DFT Library
   Mihaly Kallay                                 : mrcc  (arbitrary order and MRCC methods)
   Jiri Pittner, Ondrej Demel                    : Mk-CCSD
   Frank Weinhold                                : gennbo (NPA and NBO analysis)
   Christopher J. Cramer and Donald G. Truhlar   : smd solvation model
   Lars Goerigk                                  : TD-DFT with DH, B97 family of functionals
   V. Asgeirsson, H. Jonsson                     : NEB implementation
   FAccTs GmbH                                   : IRC, NEB, NEB-TS, DLPNO-Multilevel, CI-OPT
                                                   MM, QMMM, 2- and 3-layer-ONIOM, Crystal-QMMM,
                                                   LR-CPCM, SF, NACMEs, symmetry and pop. for TD-DFT,
                                                   nearIR, NL-DFT gradient (VV10), updates on ESD,
                                                   ML-optimized integration grids
   S Lehtola, MJT Oliveira, MAL Marques          : LibXC Library
   Liviu Ungur et al                             : ANISO software


 Your calculation uses the libint2 library for the computation of 2-el integrals
 For citations please refer to: http://libint.valeyev.net

 Your ORCA version has been built with support for libXC version: 5.1.0
 For citations please refer to: https://tddft.org/programs/libxc/

 This ORCA versions uses:
   CBLAS   interface :  Fast vector & matrix operations
   LAPACKE interface :  Fast linear algebra routines
   SCALAPACK package :  Parallel linear algebra routines
   Shared memory     :  Shared parallel matrices
   BLAS/LAPACK       :  OpenBLAS 0.3.15  USE64BITINT DYNAMIC_ARCH NO_AFFINITY SkylakeX SINGLE_THREADED
        Core in use  :  SkylakeX
   Copyright (c) 2011-2014, The OpenBLAS Project


================================================================================

----- Orbital basis set information -----
Your calculation utilizes the basis: def2-SVP
   F. Weigend and R. Ahlrichs, Phys. Chem. Chem. Phys. 7, 3297 (2005).

The basis set includes element-specific modifications.

Your calculation utilizes the basis: aug-cc-pVTZ 
    H, B-Ne : Obtained from the ccRepo (grant-hill.group.shef.ac.uk/ccrepo) Feb. 2017
              R. A. Kendall, T. H. Dunning, Jr., R. J. Harrison, J. Chem. Phys. 96, 6796 (1992)
         He : Obtained from the ccRepo (grant-hill.group.shef.ac.uk/ccrepo) Feb. 2017
              D. E. Woon, T. H. Dunning, Jr., J. Chem. Phys. 100, 2975 (1994)
  Li-Be, Na : Obtained from the ccRepo (grant-hill.group.shef.ac.uk/ccrepo) Feb. 2017
              B. P. Prascher, D. E. Woon, K. A. Peterson, T. H. Dunning, Jr., A. K. Wilson, Theor. Chem. Acc. 128, 69 (2011)
         Mg : Obtained from the Peterson Research Group Website (tyr0.chem.wsu.edu/~kipeters) Feb. 2017
              B. P. Prascher, D. E. Woon, K. A. Peterson, T. H. Dunning, Jr., A. K. Wilson, Theor. Chem. Acc. 128, 69 (2011)
      Al-Ar : Obtained from the ccRepo (grant-hill.group.shef.ac.uk/ccrepo) Feb. 2017
              D. E. Woon, T. H. Dunning, Jr., J. Chem. Phys. 98, 1358 (1993)
      Sc-Zn : Obtained from the ccRepo (grant-hill.group.shef.ac.uk/ccrepo) Feb. 2017
              N. B. Balabanov, K. A. Peterson, J. Chem. Phys. 123, 064107 (2005)
              N. B. Balabanov, K. A. Peterson, J. Chem. Phys. 125, 074110 (2006)
      Ga-Kr : Obtained from the ccRepo (grant-hill.group.shef.ac.uk/ccrepo) Feb. 2017
              A. K. Wilson, D. E. Woon, K. A. Peterson, T. H. Dunning, Jr., J. Chem. Phys. 110, 7667 (1999)
     Ag, Au : Obtained from the Peterson Research Group Website (tyr0.chem.wsu.edu/~kipeters) Feb. 2017
              K. A. Peterson, C. Puzzarini, Theor. Chem. Acc. 114, 283 (2005)

Your calculation utilizes the basis: cc-pVTZ 
       H, B-Ne : Obtained from the ccRepo (grant-hill.group.shef.ac.uk/ccrepo) Feb. 2017
                 T. H. Dunning, Jr., J. Chem. Phys. 90, 1007 (1989)
            He : Obtained from the ccRepo (grant-hill.group.shef.ac.uk/ccrepo) Feb. 2017
                 D. E. Woon, T. H. Dunning, Jr., J. Chem. Phys. 100, 2975 (1994)
  Li-Be, Na-Mg : Obtained from the ccRepo (grant-hill.group.shef.ac.uk/ccrepo) Feb. 2017
                 B. P. Prascher, D. E. Woon, K. A. Peterson, T. H. Dunning, Jr., A. K. Wilson, Theor. Chem. Acc. 128, 69 (2011)
         Al-Ar : Obtained from the ccRepo (grant-hill.group.shef.ac.uk/ccrepo) Feb. 2017
                 D. E. Woon, T. H. Dunning, Jr., J. Chem. Phys. 98, 1358 (1993)
            Ca : Obtained from the Peterson Research Group Website (tyr0.chem.wsu.edu/~kipeters) Feb. 2017
                 J. Koput, K. A. Peterson, J. Phys. Chem. 106, 9595 (2002)
         Sc-Zn : Obtained from the ccRepo (grant-hill.group.shef.ac.uk/ccrepo) Feb. 2017
                 N. B. Balabanov, K. A. Peterson, J. Chem. Phys. 123, 064107 (2005)
                 N. B. Balabanov, K. A. Peterson, J. Chem. Phys. 125, 074110 (2006)
         Ga-Kr : Obtained from the ccRepo (grant-hill.group.shef.ac.uk/ccrepo) Feb. 2017
                 A. K. Wilson, D. E. Woon, K. A. Peterson, T. H. Dunning, Jr., J. Chem. Phys. 110, 7667 (1999)
             Y : Obtained from the ccRepo (grant-hill.group.shef.ac.uk/ccrepo) Feb. 2017
                 K. A. Peterson, D. Figgen, M. Dolg, H. Stoll, J. Chem. Phys. 126, 124101 (2007)
        Ag, Au : Obtained from the Peterson Research Group Website (tyr0.chem.wsu.edu/~kipeters) Feb. 2017
                 K. A. Peterson, C. Puzzarini, Theor. Chem. Acc. 114, 283 (2005)

----- AuxJ basis set information -----
Your calculation utilizes the auxiliary basis: def2/J
   F. Weigend, Phys. Chem. Chem. Phys. 8, 1057 (2006).

================================================================================
                                        WARNINGS
                       Please study these warnings very carefully!
================================================================================

WARNING: The globally-selected AuxJ basis set is optimized for use with ECPs
         Make sure a suitable alternative is explicitly given all heavy elements (Z>36)

INFO   : the flag for use of the SHARK integral package has been found!

================================================================================
                                       INPUT FILE
================================================================================
NAME = final024.orca.inp
|  1> ! NoMOPrint PrintBasis #MINIPRINT SMALLPRINT LARGEPRINT
|  2> ! ALLPOP XYZFILE
|  3> #! BP86 3-21G   TightSCF
|  4> ! ENGRAD
|  5> ! B3LYP NormalPNO PModel #DecontractAux
|  6> #! VerySlowConv 
|  7>  %maxcore 5000
|  8>  %scf  maxiter   500  end 
|  9> 
| 10> %pal
| 11>     nprocs 32
| 12> end
| 13> 
| 14> %basis
| 15>     NewGTO O    # New basis for oxygen
| 16>         "aug-cc-pVTZ"
| 17>     end
| 18>     NewGTO C    # New basis for carbon
| 19>         "aug-cc-pVTZ"
| 20>     end
| 21>     NewGTO H    # New basis for hydrogen
| 22>         "cc-pVTZ"
| 23>     end
| 24> end
| 25> 
| 26> * xyz 0   1
| 27>   C  12.77  10.38  11.09  #1
| 28>   H  13.34  10.68  10.21  #2
| 29>   H  12.35  9.35  10.86  #3
| 30>   C  11.55  11.35  11.41  #4
| 31>   H  11.13  11.01  12.32  #5
| 32>   H  11.75  12.36  11.63  #6
| 33>   C  10.56  11.09  10.32  #7
| 34>   H  10.61  10.02  10.03  #8
| 35>   H  10.85  11.66  9.51  #9
| 36>   C  9.15  11.41  10.76  #10
| 37>   H  9.06  12.49  10.95  #11
| 38>   H  8.87  10.89  11.63  #12
| 39>   O  8.21  11.24  9.69  #13
| 40>   H  7.35  11.31  10.12  #14
| 41>   O  13.68  10.46  12.21  #15
| 42>   H  14.49  10.12  11.86  #16
| 43>   O  13.97  6.47  12.32  #17
| 44>   H  13.72  6.42  11.33  #18
| 45>   H  13.51  7.28  12.66  #19
| 46>   O  10.89  14.54  9.62  #20
| 47>   H  10.09  14.92  9.98  #21
| 48>   H  11.55  14.66  10.29  #22
| 49>   O  13.14  14.55  11.68  #23
| 50>   H  13.64  15.36  11.79  #24
| 51>   H  13.7  13.98  11.14  #25
| 52>   O  8.16  15.03  10.18  #26
| 53>   H  7.65  14.38  10.6  #27
| 54>   H  7.77  15.85  10.54  #28
| 55>   O  13.29  7.19  9.68  #29
| 56>   H  13.56  6.77  8.88  #30
| 57>   H  13.13  8.05  9.3  #31
| 58>   O  15.67  8.96  11.21  #32
| 59>   H  15.97  9.74  10.73  #33
| 60>   H  15.28  8.36  10.62  #34
| 61>   O  14.44  13.2  9.66  #35
| 62>   H  14.92  12.53  10.15  #36
| 63>   H  14.11  12.83  8.83  #37
| 64>   O  13.49  17.28  14.15  #38
| 65>   H  13.13  16.42  14.38  #39
| 66>   H  14.3  17.02  13.63  #40
| 67>   O  16.87  6.01  12.6  #41
| 68>   H  16.09  6.56  12.48  #42
| 69>   H  17.21  6.27  13.46  #43
| 70>   O  5.77  9.22  7.94  #44
| 71>   H  6.51  9.35  7.29  #45
| 72>   H  5.71  10.07  8.41  #46
| 73>   O  9.94  12.86  14.63  #47
| 74>   H  10.71  13.43  14.62  #48
| 75>   H  10.13  11.87  14.58  #49
| 76>   O  11.2  12.88  7.48  #50
| 77>   H  10.43  12.28  7.52  #51
| 78>   H  11.05  13.39  8.34  #52
| 79>   O  5.58  10.77  10.6  #53
| 80>   H  6.03  10.25  11.3  #54
| 81>   H  4.62  10.87  10.73  #55
| 82>   O  6.39  13.37  11.64  #56
| 83>   H  5.62  13.86  11.9  #57
| 84>   H  5.93  12.58  11.27  #58
| 85>   O  7.26  14.93  7.39  #59
| 86>   H  7.94  15.32  6.89  #60
| 87>   H  7.66  14.63  8.22  #61
| 88>   O  16.72  11.59  10.68  #62
| 89>   H  17.01  11.62  11.59  #63
| 90>   H  17.36  12.06  10.1  #64
| 91>   O  15.77  15.59  9  #65
| 92>   H  15.38  14.76  9.18  #66
| 93>   H  15.02  16.13  9.19  #67
| 94>   O  14.05  6.14  6.54  #68
| 95>   H  14.28  7.05  6.25  #69
| 96>   H  14.96  5.88  6.66  #70
| 97>   O  5.74  16.77  10.56  #71
| 98>   H  5.54  16.54  9.64  #72
| 99>   H  5.33  16.03  11  #73
|100>   O  12.66  8.61  13.78  #74
|101>   H  13.12  9.34  13.36  #75
|102>   H  11.69  8.75  13.72  #76
|103>   O  13.28  12.85  13.97  #77
|104>   H  13.58  12.31  13.22  #78
|105>   H  13.09  13.68  13.57  #79
|106>   O  15.39  15.96  12.77  #80
|107>   H  15.66  15.07  12.99  #81
|108>   H  16.02  16.32  12.14  #82
|109>   O  10.83  6.42  10.91  #83
|110>   H  11.56  6.71  10.44  #84
|111>   H  10.82  5.49  10.67  #85
|112>   O  7.94  16.86  12.72  #86
|113>   H  8  15.92  12.79  #87
|114>   H  7.26  17.15  12.04  #88
|115>   O  9.1  11.15  7.21  #89
|116>   H  8.63  11.7  6.55  #90
|117>   H  8.6  11.24  8.04  #91
|118>   O  14.09  4.37  14.59  #92
|119>   H  13.98  4.97  13.81  #93
|120>   H  13.27  3.94  14.71  #94
|121>   O  13.4  7.04  15.81  #95
|122>   H  12.95  7.43  15.06  #96
|123>   H  13.23  7.68  16.55  #97
|124>   O  13.23  9.37  7.72  #98
|125>   H  13.78  10.1  7.53  #99
|126>   H  12.45  9.56  7.19  #100
|127>   O  13.89  11.88  7.08  #101
|128>   H  13.02  12.35  6.96  #102
|129>   H  14.46  12.08  6.34  #103
|130>   Q  0.6645  16.45$  3.36$  12.44$
|131>   Q  0.6645  16.56$  2.23$  11.34$
|132>   Q  -1.3290  16.32$  2.99$  11.69$
|133>   Q  0.6645  18.09$  11.64$  15.76$
|134>   Q  0.6645  16.92$  10.62$  15.49$
|135>   Q  -1.3290  17.42$  11.3$  15.33$
|136>   Q  0.6645  19.03$  7.62$  8.03$
|137>   Q  0.6645  20.45$  8.22$  7.56$
|138>   Q  -1.3290  19.73$  7.74$  7.49$
|139>   Q  0.6645  1.3$  4.81$  13$
|140>   Q  0.6645  2.33$  3.82$  12.28$
|141>   Q  -1.3290  2.04$  4.53$  12.68$
|142>   Q  0.6645  14.59$  16.57$  17.61$
|143>   Q  0.6645  13.46$  15.62$  17.88$
|144>   Q  -1.3290  14.05$  16.16$  18.11$
|145>   Q  0.6645  9.05$  8.67$  0.45$
|146>   Q  0.6645  8.45$  10.04$  1.1$
|147>   Q  -1.3290  9.06$  9.46$  0.85$
|148>   Q  0.6645  8.97$  4.78$  14.63$
|149>   Q  0.6645  8.73$  4.83$  13.07$
|150>   Q  -1.3290  9.16$  4.69$  13.8$
|151>   Q  0.6645  9.55$  5.81$  16.32$
|152>   Q  0.6645  9.83$  7.13$  16.83$
|153>   Q  -1.3290  9.36$  6.6$  16.4$
|154>   Q  0.6645  7.24$  1.4$  8.36$
|155>   Q  0.6645  7.37$  2.94$  8.29$
|156>   Q  -1.3290  6.98$  2.19$  8.19$
|157>   Q  0.6645  8.36$  15.11$  17.75$
|158>   Q  0.6645  8.85$  15.9$  18.93$
|159>   Q  -1.3290  8.45$  15.81$  18.23$
|160>   Q  0.6645  9.78$  16.8$  12.53$
|161>   Q  0.6645  11.1$  17.19$  11.89$
|162>   Q  -1.3290  10.6$  16.74$  12.39$
|163>   Q  0.6645  21.16$  3.56$  13.02$
|164>   Q  0.6645  20.5$  4.9$  12.8$
|165>   Q  -1.3290  21.04$  4.39$  13.2$
|166>   Q  0.6645  19.28$  17.93$  8.8$
|167>   Q  0.6645  17.92$  17.96$  8.13$
|168>   Q  -1.3290  18.5$  18.19$  8.69$
|169>   Q  0.6645  16.85$  12.96$  18.19$
|170>   Q  0.6645  18.24$  13.48$  18.71$
|171>   Q  -1.3290  17.67$  13.17$  18.13$
|172>   Q  0.6645  11.37$  16.98$  4.55$
|173>   Q  0.6645  9.81$  17.35$  4.35$
|174>   Q  -1.3290  10.61$  17.35$  4.74$
|175>   Q  0.6645  11.52$  19.48$  10.56$
|176>   Q  0.6645  10.18$  18.99$  9.83$
|177>   Q  -1.3290  10.87$  18.94$  10.37$
|178>   Q  0.6645  7.67$  7.65$  15.43$
|179>   Q  0.6645  7.02$  8.13$  14.18$
|180>   Q  -1.3290  7.19$  8.16$  15$
|181>   Q  0.6645  7.85$  17.25$  3.77$
|182>   Q  0.6645  7.93$  15.92$  2.91$
|183>   Q  -1.3290  8.18$  16.69$  3.2$
|184>   Q  0.6645  10.94$  9.08$  5.07$
|185>   Q  0.6645  12.27$  9.86$  5.21$
|186>   Q  -1.3290  11.48$  9.65$  5.35$
|187>   Q  0.6645  18.8$  15.26$  13.65$
|188>   Q  0.6645  18.81$  15.56$  12.02$
|189>   Q  -1.3290  19.1$  15.31$  12.82$
|190>   Q  0.6645  6.87$  5.3$  4.8$
|191>   Q  0.6645  6.37$  6.16$  5.99$
|192>   Q  -1.3290  6.72$  6.01$  5.22$
|193>   Q  0.6645  18.04$  6.27$  15.8$
|194>   Q  0.6645  19.16$  6.72$  14.82$
|195>   Q  -1.3290  18.37$  6.7$  15.1$
|196>   Q  0.6645  7.61$  13.92$  15.8$
|197>   Q  0.6645  8.93$  13.19$  16.12$
|198>   Q  -1.3290  8.26$  13.63$  16.31$
|199>   Q  0.6645  6.43$  16.07$  18.62$
|200>   Q  0.6645  5.1$  16.38$  17.98$
|201>   Q  -1.3290  5.61$  16.06$  18.54$
|202>   Q  0.6645  3.01$  6.19$  13.49$
|203>   Q  0.6645  4.43$  5.8$  13.92$
|204>   Q  -1.3290  3.81$  6.33$  13.72$
|205>   Q  0.6645  3.17$  9.23$  6.02$
|206>   Q  0.6645  2.66$  9.37$  4.63$
|207>   Q  -1.3290  2.97$  9.63$  5.32$
|208>   Q  0.6645  14.09$  2.89$  8.65$
|209>   Q  0.6645  14.55$  2.99$  7.16$
|210>   Q  -1.3290  14.52$  3.19$  7.99$
|211>   Q  0.6645  6.83$  13.49$  6.28$
|212>   Q  0.6645  6.3$  12.08$  5.76$
|213>   Q  -1.3290  6.85$  12.73$  5.92$
|214>   Q  0.6645  17.42$  6.49$  9.49$
|215>   Q  0.6645  18$  7.91$  9.87$
|216>   Q  -1.3290  17.74$  7.27$  9.36$
|217>   Q  0.6645  12.39$  5.31$  16.12$
|218>   Q  0.6645  11.9$  4.64$  17.35$
|219>   Q  -1.3290  11.85$  4.83$  16.53$
|220>   Q  0.6645  19.48$  3.49$  16.49$
|221>   Q  0.6645  19.89$  3.82$  15.07$
|222>   Q  -1.3290  19.38$  3.8$  15.7$
|223>   Q  0.6645  8.56$  7.15$  8.88$
|224>   Q  0.6645  9.32$  7.04$  10.19$
|225>   Q  -1.3290  8.65$  7.15$  9.72$
|226>   Q  0.6645  15.78$  4.41$  17.28$
|227>   Q  0.6645  14.62$  4.26$  16.42$
|228>   Q  -1.3290  15.02$  4.17$  17.13$
|229>   Q  0.6645  5.39$  17.9$  14.61$
|230>   Q  0.6645  4.18$  17.1$  14.05$
|231>   Q  -1.3290  4.6$  17.8$  14.33$
|232>   Q  0.6645  4.09$  12.52$  1.81$
|233>   Q  0.6645  4.36$  11.22$  2.5$
|234>   Q  -1.3290  4.41$  12.03$  2.41$
|235>   Q  0.6645  12.05$  12.62$  19.49$
|236>   Q  0.6645  12.4$  11.08$  19.07$
|237>   Q  -1.3290  12.07$  11.91$  18.99$
|238>   Q  0.6645  3.61$  15.04$  12.6$
|239>   Q  0.6645  3.45$  14.43$  11.14$
|240>   Q  -1.3290  3.82$  14.87$  11.78$
|241>   Q  0.6645  17.88$  4.58$  17.79$
|242>   Q  0.6645  17.19$  5.95$  18.2$
|243>   Q  -1.3290  17.39$  5.3$  17.69$
|244>   Q  0.6645  5.5$  16.64$  4.36$
|245>   Q  0.6645  4.82$  17.58$  3.2$
|246>   Q  -1.3290  5.23$  17.35$  3.96$
|247>   Q  0.6645  4.64$  12.7$  15.49$
|248>   Q  0.6645  4.16$  12.43$  14.02$
|249>   Q  -1.3290  4.58$  12.87$  14.65$
|250>   Q  0.6645  12.12$  20.07$  6.38$
|251>   Q  0.6645  11.31$  18.82$  5.91$
|252>   Q  -1.3290  11.48$  19.5$  6.37$
|253>   Q  0.6645  8.81$  2.8$  16.04$
|254>   Q  0.6645  10.13$  3.74$  16.32$
|255>   Q  -1.3290  9.28$  3.49$  16.36$
|256>   Q  0.6645  1.04$  8.96$  7.82$
|257>   Q  0.6645  -0.07$  10.09$  8.15$
|258>   Q  -1.3290  0.25$  9.3$  8.01$
|259>   Q  0.6645  10.24$  11.42$  19.5$
|260>   Q  0.6645  9.02$  10.96$  18.76$
|261>   Q  -1.3290  9.48$  11.15$  19.45$
|262>   Q  0.6645  18.83$  11.18$  7.31$
|263>   Q  0.6645  19.38$  11.64$  5.99$
|264>   Q  -1.3290  18.76$  11.49$  6.52$
|265>   Q  0.6645  4.07$  14.55$  8.95$
|266>   Q  0.6645  2.6$  14.29$  9.18$
|267>   Q  -1.3290  3.41$  14.09$  9.21$
|268>   Q  0.6645  15.69$  15.58$  4.59$
|269>   Q  0.6645  15.19$  14.99$  3.17$
|270>   Q  -1.3290  15.4$  14.97$  4.02$
|271>   Q  0.6645  2.42$  5.07$  6.64$
|272>   Q  0.6645  3.07$  6.25$  5.84$
|273>   Q  -1.3290  2.47$  5.87$  6.34$
|274>   Q  0.6645  12.51$  13.74$  16.19$
|275>   Q  0.6645  12.64$  13.16$  17.58$
|276>   Q  -1.3290  12.74$  13.74$  17$
|277>   Q  0.6645  13.89$  3.35$  11.58$
|278>   Q  0.6645  13.47$  2.17$  10.82$
|279>   Q  -1.3290  13.32$  2.87$  11.2$
|280>   Q  0.6645  13.19$  15.3$  4.82$
|281>   Q  0.6645  12$  14.99$  3.95$
|282>   Q  -1.3290  12.56$  15.5$  4.3$
|283>   Q  0.6645  13.3$  2.05$  5.65$
|284>   Q  0.6645  14.04$  3.11$  4.66$
|285>   Q  -1.3290  13.93$  2.39$  5.13$
|286>   Q  0.6645  6.91$  13.85$  13.48$
|287>   Q  0.6645  8.35$  13.61$  14.01$
|288>   Q  -1.3290  7.65$  14.03$  13.9$
|289>   Q  0.6645  6.64$  21.07$  9.42$
|290>   Q  0.6645  7.78$  20.87$  8.47$
|291>   Q  -1.3290  7.32$  21.33$  8.99$
|292>   Q  0.6645  4.95$  6.69$  4.45$
|293>   Q  0.6645  4.07$  6.63$  3.24$
|294>   Q  -1.3290  4.25$  6.81$  4.02$
|295>   Q  0.6645  14.09$  1.21$  16.25$
|296>   Q  0.6645  15.13$  1.93$  15.35$
|297>   Q  -1.3290  14.75$  1.28$  15.73$
|298>   Q  0.6645  3.91$  18.62$  17.2$
|299>   Q  0.6645  3.98$  17.5$  16.16$
|300>   Q  -1.3290  4.06$  17.84$  16.94$
|301>   Q  0.6645  12.07$  21.44$  12.1$
|302>   Q  0.6645  13.02$  21.56$  11.05$
|303>   Q  -1.3290  12.33$  21.27$  11.34$
|304>   Q  0.6645  18.03$  6.5$  5$
|305>   Q  0.6645  19.28$  7.17$  5.5$
|306>   Q  -1.3290  18.8$  6.83$  4.93$
|307>   Q  0.6645  7.83$  5.06$  8.1$
|308>   Q  0.6645  7.7$  4.87$  9.72$
|309>   Q  -1.3290  7.54$  4.71$  8.87$
|310>   Q  0.6645  4.63$  10.97$  16.97$
|311>   Q  0.6645  3.32$  11.9$  17.03$
|312>   Q  -1.3290  4.18$  11.71$  17.06$
|313>   Q  0.6645  15.59$  7.41$  4.27$
|314>   Q  0.6645  15.65$  8.55$  5.42$
|315>   Q  -1.3290  15.29$  8.02$  4.81$
|316>   Q  0.6645  15.46$  7.02$  19$
|317>   Q  0.6645  14.64$  6.47$  17.87$
|318>   Q  -1.3290  14.91$  7.06$  18.39$
|319>   Q  0.6645  15.07$  0.65$  10.28$
|320>   Q  0.6645  14.51$  0.69$  8.96$
|321>   Q  -1.3290  14.44$  0.72$  9.78$
|322>   Q  0.6645  10.23$  15.87$  5.72$
|323>   Q  0.6645  9.94$  14.52$  6.55$
|324>   Q  -1.3290  9.76$  15.22$  6.04$
|325>   Q  0.6645  5.98$  8.05$  11.89$
|326>   Q  0.6645  7.33$  7.91$  11.19$
|327>   Q  -1.3290  6.81$  8.11$  11.82$
|328>   Q  0.6645  5.16$  6.37$  17.86$
|329>   Q  0.6645  3.98$  6.68$  18.59$
|330>   Q  -1.3290  4.51$  6.84$  18.01$
|331>   Q  0.6645  7.61$  18.06$  16.66$
|332>   Q  0.6645  6.07$  18.18$  16.93$
|333>   Q  -1.3290  6.84$  18.36$  16.59$
|334>   Q  0.6645  1.79$  18.17$  11.27$
|335>   Q  0.6645  0.7$  17.2$  11.73$
|336>   Q  -1.3290  1.08$  17.7$  11.16$
|337>   Q  0.6645  9.91$  9.38$  19.96$
|338>   Q  0.6645  10.99$  8.42$  20.58$
|339>   Q  -1.3290  10.46$  8.69$  19.98$
|340>   Q  0.6645  10.71$  1.83$  9.16$
|341>   Q  0.6645  11.52$  0.51$  9.58$
|342>   Q  -1.3290  11.23$  1.16$  9.06$
|343>   Q  0.6645  8.29$  6.39$  6.33$
|344>   Q  0.6645  9.62$  6.17$  6.97$
|345>   Q  -1.3290  8.8$  6.31$  6.98$
|346>   Q  0.6645  17.19$  4.74$  5.69$
|347>   Q  0.6645  17.36$  5.09$  7.23$
|348>   Q  -1.3290  17.09$  5.2$  6.43$
|349>   Q  0.6645  21.3$  13.55$  15.47$
|350>   Q  0.6645  20.71$  12.62$  14.4$
|351>   Q  -1.3290  21.32$  12.98$  14.81$
|352>   Q  0.6645  4.72$  13.19$  4.41$
|353>   Q  0.6645  4.05$  13.41$  5.76$
|354>   Q  -1.3290  4.34$  13.65$  5.01$
|355>   Q  0.6645  15.78$  8.41$  15.96$
|356>   Q  0.6645  17.2$  8.32$  15.54$
|357>   Q  -1.3290  16.57$  8.64$  15.95$
|358>   Q  0.6645  10.67$  19.65$  13.44$
|359>   Q  0.6645  10.08$  19.51$  12.04$
|360>   Q  -1.3290  10.04$  19.64$  12.86$
|361>   Q  0.6645  9.77$  2.89$  10.5$
|362>   Q  0.6645  11.28$  3.27$  10.29$
|363>   Q  -1.3290  10.43$  3.36$  10.24$
|364>   Q  0.6645  3.21$  2.7$  10.37$
|365>   Q  0.6645  4.01$  3.68$  11.28$
|366>   Q  -1.3290  3.5$  3$  11.08$
|367>   Q  0.6645  19.54$  6.93$  18.57$
|368>   Q  0.6645  21.13$  7.06$  18.64$
|369>   Q  -1.3290  20.37$  6.74$  18.46$
|370>   Q  0.6645  21.81$  15.52$  16.6$
|371>   Q  0.6645  20.37$  15.11$  16.3$
|372>   Q  -1.3290  21.15$  15$  16.59$
|373>   Q  0.6645  14.84$  5.22$  3.55$
|374>   Q  0.6645  14.55$  4.08$  2.63$
|375>   Q  -1.3290  14.44$  4.53$  3.32$
|376>   Q  0.6645  6.55$  18.42$  4.88$
|377>   Q  0.6645  7.4$  19.58$  5.24$
|378>   Q  -1.3290  7.27$  18.79$  5.15$
|379>   Q  0.6645  5.79$  4.99$  9.5$
|380>   Q  0.6645  4.89$  5.82$  10.49$
|381>   Q  -1.3290  5.06$  5.19$  9.91$
|382>   Q  0.6645  7.49$  5.13$  16.58$
|383>   Q  0.6645  6.35$  4.13$  16.08$
|384>   Q  -1.3290  6.69$  4.88$  16.32$
|385>   Q  0.6645  11.37$  4.9$  2.71$
|386>   Q  0.6645  12.64$  5.09$  3.49$
|387>   Q  -1.3290  11.83$  5.24$  3.31$
|388>   Q  0.6645  12.24$  18$  17.55$
|389>   Q  0.6645  12.59$  19.26$  18.32$
|390>   Q  -1.3290  12.21$  18.81$  17.69$
|391>   Q  0.6645  20.43$  3.44$  9.47$
|392>   Q  0.6645  19.98$  3.17$  10.89$
|393>   Q  -1.3290  20.26$  2.94$  10.14$
|394>   Q  0.6645  2.57$  15.49$  14.89$
|395>   Q  0.6645  3.92$  14.58$  14.65$
|396>   Q  -1.3290  3.31$  15.2$  14.48$
|397>   Q  0.6645  19.54$  5.31$  10.85$
|398>   Q  0.6645  18.32$  5.07$  11.88$
|399>   Q  -1.3290  19.1$  4.94$  11.5$
|400>   Q  0.6645  2.23$  4.91$  9.47$
|401>   Q  0.6645  1.8$  5.15$  10.97$
|402>   Q  -1.3290  1.77$  5.21$  10.12$
|403>   Q  0.6645  12.5$  8.76$  3.18$
|404>   Q  0.6645  13.91$  8.95$  3.75$
|405>   Q  -1.3290  13.26$  9.13$  3.25$
|406>   Q  0.6645  3.54$  16.77$  5.2$
|407>   Q  0.6645  3.58$  15.3$  5.49$
|408>   Q  -1.3290  3.46$  16.1$  5.68$
|409>   Q  0.6645  10.92$  7.05$  3.51$
|410>   Q  0.6645  10.1$  8.17$  2.79$
|411>   Q  -1.3290  10.79$  7.82$  3.14$
|412>   Q  0.6645  11.23$  15.36$  13.81$
|413>   Q  0.6645  11.29$  15.56$  15.39$
|414>   Q  -1.3290  11.56$  15.31$  14.62$
|415>   Q  0.6645  19.61$  12.2$  12.06$
|416>   Q  0.6645  19.82$  13.72$  12.18$
|417>   Q  -1.3290  20.04$  12.93$  11.97$
|418>   Q  0.6645  21.59$  10.36$  14.94$
|419>   Q  0.6645  21.64$  9.19$  14.13$
|420>   Q  -1.3290  21.26$  9.84$  14.37$
|421>   Q  0.6645  5.37$  21.34$  10.98$
|422>   Q  0.6645  4.92$  19.92$  10.86$
|423>   Q  -1.3290  5.22$  20.61$  10.57$
|424>   Q  0.6645  18.57$  9.64$  17.82$
|425>   Q  0.6645  18.47$  11.15$  17.82$
|426>   Q  -1.3290  18.86$  10.41$  17.81$
|427>   Q  0.6645  8$  19.89$  13.6$
|428>   Q  0.6645  7.1$  19.57$  14.8$
|429>   Q  -1.3290  7.35$  20$  14.1$
|430>   Q  0.6645  17.17$  8.62$  19.31$
|431>   Q  0.6645  16.78$  8.18$  17.82$
|432>   Q  -1.3290  17.23$  8.21$  18.56$
|433>   Q  0.6645  5.02$  5.86$  8.07$
|434>   Q  0.6645  5.47$  7.39$  7.74$
|435>   Q  -1.3290  5.25$  6.55$  7.58$
|436>   Q  0.6645  2.36$  12.02$  12.45$
|437>   Q  0.6645  2.67$  10.7$  13.16$
|438>   Q  -1.3290  2.83$  11.4$  12.7$
|439>   Q  0.6645  17.72$  17.75$  10.81$
|440>   Q  0.6645  17.02$  18.5$  11.97$
|441>   Q  -1.3290  17.43$  17.88$  11.59$
|442>   Q  0.6645  6.6$  4.69$  12.27$
|443>   Q  0.6645  7.26$  5.94$  11.77$
|444>   Q  -1.3290  7.21$  5.14$  11.97$
|445>   Q  0.6645  4.75$  12.48$  18.91$
|446>   Q  0.6645  5.41$  13.88$  19.12$
|447>   Q  -1.3290  5.18$  13.1$  19.34$
|448>   Q  0.6645  14.02$  13.78$  1.49$
|449>   Q  0.6645  15.21$  13.89$  0.57$
|450>   Q  -1.3290  14.59$  14.23$  1.02$
|451>   Q  0.6645  5.1$  8.53$  17.21$
|452>   Q  0.6645  5.95$  9.28$  16.06$
|453>   Q  -1.3290  5.33$  9.18$  16.66$
|454>   Q  0.6645  0.53$  13.39$  13.14$
|455>   Q  0.6645  0.11$  13.17$  11.83$
|456>   Q  -1.3290  0.68$  13.35$  12.37$
|457>   Q  0.6645  12.9$  10$  15.37$
|458>   Q  0.6645  13.41$  11.39$  15.44$
|459>   Q  -1.3290  13.25$  10.61$  15.77$
|460>   Q  0.6645  4.38$  16.36$  7.3$
|461>   Q  0.6645  5.73$  15.77$  7.84$
|462>   Q  -1.3290  5.03$  16.25$  7.89$
|463>   Q  0.6645  14.23$  16.35$  1.54$
|464>   Q  0.6645  13.64$  16.75$  2.87$
|465>   Q  -1.3290  14.18$  16.84$  2.25$
|466>   Q  0.6645  0.95$  14.47$  10.76$
|467>   Q  0.6645  0.19$  15.41$  9.74$
|468>   Q  -1.3290  0.72$  14.76$  9.98$
|469>   Q  0.6645  6.29$  10.6$  2.58$
|470>   Q  0.6645  7.83$  11.01$  3.01$
|471>   Q  -1.3290  7.19$  10.59$  2.62$
|472>   Q  0.6645  20.42$  16.06$  6.99$
|473>   Q  0.6645  19.85$  15.26$  5.85$
|474>   Q  -1.3290  19.8$  15.66$  6.56$
|475>   Q  0.6645  21.04$  15.83$  13.29$
|476>   Q  0.6645  21$  17.31$  13.28$
|477>   Q  -1.3290  21.37$  16.58$  13.28$
|478>   Q  0.6645  4.09$  7.53$  12.39$
|479>   Q  0.6645  3.69$  8.53$  11.18$
|480>   Q  -1.3290  4.04$  7.86$  11.59$
|481>   Q  0.6645  8.9$  1.07$  11.57$
|482>   Q  0.6645  8.21$  0.66$  10.23$
|483>   Q  -1.3290  8.61$  1.17$  10.78$
|484>   Q  0.6645  4.64$  10.38$  5.24$
|485>   Q  0.6645  6.16$  10.08$  5.04$
|486>   Q  -1.3290  5.45$  10.55$  5.14$
|487>   Q  0.6645  6.83$  10.44$  17.76$
|488>   Q  0.6645  7.36$  11.81$  17.55$
|489>   Q  -1.3290  7.43$  10.99$  17.58$
|490>   Q  0.6645  3.63$  9.2$  15.45$
|491>   Q  0.6645  2.22$  9.62$  15.89$
|492>   Q  -1.3290  2.82$  9.4$  15.34$
|493>   Q  0.6645  4.66$  3.36$  13.58$
|494>   Q  0.6645  6.21$  3.51$  13.85$
|495>   Q  -1.3290  5.41$  3.73$  13.66$
|496>   Q  0.6645  20.89$  5.89$  8.24$
|497>   Q  0.6645  21.93$  5.34$  9.24$
|498>   Q  -1.3290  21.16$  5.37$  8.84$
|499>   Q  0.6645  17.02$  9.82$  2.87$
|500>   Q  0.6645  16.14$  10.88$  3.5$
|501>   Q  -1.3290  16.47$  10.47$  2.87$
|502>   Q  0.6645  14.39$  8.36$  0.99$
|503>   Q  0.6645  15.26$  9.39$  1.7$
|504>   Q  -1.3290  15.07$  8.8$  1.14$
|505>   Q  0.6645  1.81$  7.85$  13.97$
|506>   Q  0.6645  0.67$  6.91$  14.19$
|507>   Q  -1.3290  1.12$  7.44$  13.74$
|508>   Q  0.6645  17.84$  16.19$  6.2$
|509>   Q  0.6645  16.36$  16.23$  6.99$
|510>   Q  -1.3290  16.92$  16.26$  6.32$
|511>   Q  0.6645  4.15$  17.93$  11$
|512>   Q  0.6645  3.89$  18.54$  12.46$
|513>   Q  -1.3290  3.79$  18.45$  11.59$
|514>   Q  0.6645  8.85$  16.69$  14.91$
|515>   Q  0.6645  9.77$  17.78$  14.98$
|516>   Q  -1.3290  9.4$  17.13$  15.31$
|517>   Q  0.6645  1.8$  9.36$  10.17$
|518>   Q  0.6645  2.17$  10.62$  11$
|519>   Q  -1.3290  2.24$  10.07$  10.38$
|520>   Q  0.6645  10.51$  11.26$  2.92$
|521>   Q  0.6645  10.69$  11.05$  4.44$
|522>   Q  -1.3290  10.33$  11.36$  3.74$
|523>   Q  0.6645  3.88$  8.73$  8.18$
|524>   Q  0.6645  2.87$  7.63$  7.65$
|525>   Q  -1.3290  3.18$  8.42$  7.77$
|526>   Q  0.6645  11.63$  1.73$  15.36$
|527>   Q  0.6645  10.97$  0.75$  16.27$
|528>   Q  -1.3290  11.56$  1.32$  16.08$
|529>   Q  0.6645  21.88$  12.5$  5.52$
|530>   Q  0.6645  21.68$  11.98$  6.87$
|531>   Q  -1.3290  21.58$  11.96$  6.05$
|532>   Q  0.6645  13.95$  18.11$  7.72$
|533>   Q  0.6645  12.9$  17.65$  8.69$
|534>   Q  -1.3290  13.6$  17.6$  8.29$
|535>   Q  0.6645  6.67$  13.34$  2.5$
|536>   Q  0.6645  7.09$  13.64$  3.93$
|537>   Q  -1.3290  7.13$  13.67$  3.09$
|538>   Q  0.6645  16.87$  12.39$  5.65$
|539>   Q  0.6645  15.92$  13.08$  4.61$
|540>   Q  -1.3290  16.21$  12.47$  5.12$
|541>   Q  0.6645  15.21$  19.14$  16.35$
|542>   Q  0.6645  14.5$  17.95$  15.58$
|543>   Q  -1.3290  15.03$  18.31$  16.18$
|544>   Q  0.6645  16.76$  6.48$  2.27$
|545>   Q  0.6645  15.94$  7.71$  2.12$
|546>   Q  -1.3290  16.16$  6.99$  2.51$
|547>   Q  0.6645  10.46$  1.16$  13.66$
|548>   Q  0.6645  10.04$  -0.24$  13.27$
|549>   Q  -1.3290  9.92$  0.57$  13.45$
|550>   Q  0.6645  8.62$  14.08$  1.39$
|551>   Q  0.6645  8.21$  13.1$  0.29$
|552>   Q  -1.3290  8.57$  13.78$  0.62$
|553>   Q  0.6645  10.44$  16.73$  17.17$
|554>   Q  0.6645  10.95$  15.56$  18.1$
|555>   Q  -1.3290  11$  16.24$  17.59$
|556>   Q  0.6645  10.2$  13.16$  3.53$
|557>   Q  0.6645  9.9$  14.5$  3.85$
|558>   Q  -1.3290  10.25$  13.99$  3.39$
|559>   Q  0.6645  7.11$  2.67$  4.02$
|560>   Q  0.6645  8.19$  3.4$  4.81$
|561>   Q  -1.3290  7.66$  3.29$  4.14$
|562>   Q  0.6645  14.84$  13.39$  14.11$
|563>   Q  0.6645  16.25$  12.83$  14.39$
|564>   Q  -1.3290  15.66$  13.3$  13.97$
|565>   Q  0.6645  13.29$  14.41$  21.34$
|566>   Q  0.6645  13.25$  14.61$  19.89$
|567>   Q  -1.3290  12.93$  14.4$  20.61$
|568>   Q  0.6645  16.88$  4.4$  10.1$
|569>   Q  0.6645  16.37$  4.07$  8.71$
|570>   Q  -1.3290  16.88$  4.45$  9.25$
|571>   Q  0.6645  9.2$  9.49$  15.33$
|572>   Q  0.6645  9.02$  10.59$  16.35$
|573>   Q  -1.3290  9.46$  10.15$  15.78$
|574>   Q  0.6645  10.98$  9.36$  17.26$
|575>   Q  0.6645  11.18$  8.25$  18.32$
|576>   Q  -1.3290  11.26$  8.63$  17.54$
|577>   Q  0.6645  10.95$  15.15$  20.55$
|578>   Q  0.6645  9.49$  14.7$  20.66$
|579>   Q  -1.3290  10.15$  15.03$  20.28$
|580>   Q  0.6645  11.81$  2.88$  12.92$
|581>   Q  0.6645  10.82$  3.71$  13.78$
|582>   Q  -1.3290  11.4$  3.08$  13.61$
|583>   Q  0.6645  20.03$  11.82$  9.93$
|584>   Q  0.6645  19.28$  10.47$  9.92$
|585>   Q  -1.3290  19.38$  11.3$  9.72$
|586>   Q  0.6645  17.33$  3.79$  14.92$
|587>   Q  0.6645  15.9$  3.99$  14.22$
|588>   Q  -1.3290  16.64$  3.58$  14.42$
|589>   Q  0.6645  18.16$  10.99$  13.53$
|590>   Q  0.6645  19.58$  10.54$  13.21$
|591>   Q  -1.3290  18.82$  10.91$  13.04$
|592>   Q  0.6645  9.84$  6.93$  13.89$
|593>   Q  0.6645  10.75$  7.21$  12.56$
|594>   Q  -1.3290  10.23$  7.4$  13.25$
|595>   Q  0.6645  11.46$  5.47$  5.22$
|596>   Q  0.6645  11.98$  5.56$  6.59$
|597>   Q  -1.3290  11.39$  5.58$  6.03$
|598>   Q  0.6645  18.7$  8.6$  3.84$
|599>   Q  0.6645  19.69$  9.72$  3.5$
|600>   Q  -1.3290  19.02$  9.2$  3.36$
|601>   Q  0.6645  0.17$  12.74$  9.1$
|602>   Q  0.6645  0.95$  11.45$  8.94$
|603>   Q  -1.3290  0.28$  11.91$  8.93$
|604>   Q  0.6645  17.63$  15.5$  9.82$
|605>   Q  0.6645  18.84$  14.6$  9.74$
|606>   Q  -1.3290  18.41$  15.28$  9.99$
|607>   Q  0.6645  7.26$  7.35$  3.53$
|608>   Q  0.6645  7.53$  8.64$  2.87$
|609>   Q  -1.3290  7.72$  7.87$  3.11$
|610>   Q  0.6645  10.37$  10.93$  0.73$
|611>   Q  0.6645  10.39$  12.45$  0.85$
|612>   Q  -1.3290  10.73$  11.67$  0.92$
|613>   Q  0.6645  17.13$  9.65$  6.44$
|614>   Q  0.6645  16.74$  8.53$  7.34$
|615>   Q  -1.3290  16.58$  9.15$  6.82$
|616>   Q  0.6645  14.82$  11.53$  17.75$
|617>   Q  0.6645  14.49$  12.99$  17.6$
|618>   Q  -1.3290  14.97$  12.35$  17.79$
|619>   Q  0.6645  8.38$  18.7$  7.65$
|620>   Q  0.6645  9.71$  19.51$  7.54$
|621>   Q  -1.3290  8.87$  19.38$  7.77$
|622>   Q  0.6645  13.34$  11.43$  2.85$
|623>   Q  0.6645  12.45$  12.56$  2.56$
|624>   Q  -1.3290  13.17$  12.23$  2.69$
|625>   Q  0.6645  2.98$  12.81$  7.73$
|626>   Q  0.6645  2.59$  11.66$  6.79$
|627>   Q  -1.3290  2.8$  12.44$  6.97$
|628>   Q  0.6645  13.53$  9.78$  17.5$
|629>   Q  0.6645  14$  8.94$  18.68$
|630>   Q  -1.3290  13.83$  9.67$  18.28$
|631>   Q  0.6645  19.12$  8.65$  11.88$
|632>   Q  0.6645  20.35$  8.91$  10.97$
|633>   Q  -1.3290  19.53$  8.81$  11.16$
|634>   Q  0.6645  0.82$  7.13$  10.41$
|635>   Q  0.6645  1$  7.8$  11.72$
|636>   Q  -1.3290  0.77$  7.77$  10.94$
|637>   Q  0.6645  11.78$  19.12$  15.64$
|638>   Q  0.6645  12.36$  18.47$  14.44$
|639>   Q  -1.3290  11.91$  19.05$  14.83$
|640>   Q  0.6645  0.93$  11.5$  17.48$
|641>   Q  0.6645  1.14$  12$  16.11$
|642>   Q  -1.3290  1.36$  11.57$  16.77$
|643>   Q  0.6645  6.42$  8.5$  19.88$
|644>   Q  0.6645  6.03$  9.71$  20.85$
|645>   Q  -1.3290  5.97$  9.2$  20.14$
|646>   Q  0.6645  20.61$  6.55$  16.19$
|647>   Q  0.6645  21.87$  5.78$  15.9$
|648>   Q  -1.3290  21.36$  6.43$  15.85$
|649>   Q  0.6645  9.93$  3.8$  6.37$
|650>   Q  0.6645  10.26$  2.43$  6.01$
|651>   Q  -1.3290  9.75$  3.05$  6.1$
|652>   Q  0.6645  18.07$  14.5$  16.05$
|653>   Q  0.6645  18.35$  15.94$  16.03$
|654>   Q  -1.3290  18.49$  15.17$  15.81$
|655>   Q  0.6645  8.55$  9.78$  6.12$
|656>   Q  0.6645  8.18$  8.66$  5.12$
|657>   Q  -1.3290  8.04$  9.26$  5.69$
|658>   Q  0.6645  15.73$  19.92$  13.45$
|659>   Q  0.6645  16.86$  20.94$  13.57$
|660>   Q  -1.3290  16.4$  20.34$  13.18$
|661>   Q  0.6645  1.89$  13.48$  5.14$
|662>   Q  0.6645  1.31$  14.3$  4.04$
|663>   Q  -1.3290  1.28$  13.79$  4.71$
|664> *
|665> 
|666>                          ****END OF INPUT****
================================================================================

                     *******************************
                     * Energy+Gradient Calculation *
                     *******************************

---------------------------------
CARTESIAN COORDINATES (ANGSTROEM)
---------------------------------
  C     12.770000   10.380000   11.090000
  H     13.340000   10.680000   10.210000
  H     12.350000    9.350000   10.860000
  C     11.550000   11.350000   11.410000
  H     11.130000   11.010000   12.320000
  H     11.750000   12.360000   11.630000
  C     10.560000   11.090000   10.320000
  H     10.610000   10.020000   10.030000
  H     10.850000   11.660000    9.510000
  C      9.150000   11.410000   10.760000
  H      9.060000   12.490000   10.950000
  H      8.870000   10.890000   11.630000
  O      8.210000   11.240000    9.690000
  H      7.350000   11.310000   10.120000
  O     13.680000   10.460000   12.210000
  H     14.490000   10.120000   11.860000
  O     13.970000    6.470000   12.320000
  H     13.720000    6.420000   11.330000
  H     13.510000    7.280000   12.660000
  O     10.890000   14.540000    9.620000
  H     10.090000   14.920000    9.980000
  H     11.550000   14.660000   10.290000
  O     13.140000   14.550000   11.680000
  H     13.640000   15.360000   11.790000
  H     13.700000   13.980000   11.140000
  O      8.160000   15.030000   10.180000
  H      7.650000   14.380000   10.600000
  H      7.770000   15.850000   10.540000
  O     13.290000    7.190000    9.680000
  H     13.560000    6.770000    8.880000
  H     13.130000    8.050000    9.300000
  O     15.670000    8.960000   11.210000
  H     15.970000    9.740000   10.730000
  H     15.280000    8.360000   10.620000
  O     14.440000   13.200000    9.660000
  H     14.920000   12.530000   10.150000
  H     14.110000   12.830000    8.830000
  O     13.490000   17.280000   14.150000
  H     13.130000   16.420000   14.380000
  H     14.300000   17.020000   13.630000
  O     16.870000    6.010000   12.600000
  H     16.090000    6.560000   12.480000
  H     17.210000    6.270000   13.460000
  O      5.770000    9.220000    7.940000
  H      6.510000    9.350000    7.290000
  H      5.710000   10.070000    8.410000
  O      9.940000   12.860000   14.630000
  H     10.710000   13.430000   14.620000
  H     10.130000   11.870000   14.580000
  O     11.200000   12.880000    7.480000
  H     10.430000   12.280000    7.520000
  H     11.050000   13.390000    8.340000
  O      5.580000   10.770000   10.600000
  H      6.030000   10.250000   11.300000
  H      4.620000   10.870000   10.730000
  O      6.390000   13.370000   11.640000
  H      5.620000   13.860000   11.900000
  H      5.930000   12.580000   11.270000
  O      7.260000   14.930000    7.390000
  H      7.940000   15.320000    6.890000
  H      7.660000   14.630000    8.220000
  O     16.720000   11.590000   10.680000
  H     17.010000   11.620000   11.590000
  H     17.360000   12.060000   10.100000
  O     15.770000   15.590000    9.000000
  H     15.380000   14.760000    9.180000
  H     15.020000   16.130000    9.190000
  O     14.050000    6.140000    6.540000
  H     14.280000    7.050000    6.250000
  H     14.960000    5.880000    6.660000
  O      5.740000   16.770000   10.560000
  H      5.540000   16.540000    9.640000
  H      5.330000   16.030000   11.000000
  O     12.660000    8.610000   13.780000
  H     13.120000    9.340000   13.360000
  H     11.690000    8.750000   13.720000
  O     13.280000   12.850000   13.970000
  H     13.580000   12.310000   13.220000
  H     13.090000   13.680000   13.570000
  O     15.390000   15.960000   12.770000
  H     15.660000   15.070000   12.990000
  H     16.020000   16.320000   12.140000
  O     10.830000    6.420000   10.910000
  H     11.560000    6.710000   10.440000
  H     10.820000    5.490000   10.670000
  O      7.940000   16.860000   12.720000
  H      8.000000   15.920000   12.790000
  H      7.260000   17.150000   12.040000
  O      9.100000   11.150000    7.210000
  H      8.630000   11.700000    6.550000
  H      8.600000   11.240000    8.040000
  O     14.090000    4.370000   14.590000
  H     13.980000    4.970000   13.810000
  H     13.270000    3.940000   14.710000
  O     13.400000    7.040000   15.810000
  H     12.950000    7.430000   15.060000
  H     13.230000    7.680000   16.550000
  O     13.230000    9.370000    7.720000
  H     13.780000   10.100000    7.530000
  H     12.450000    9.560000    7.190000
  O     13.890000   11.880000    7.080000
  H     13.020000   12.350000    6.960000
  H     14.460000   12.080000    6.340000
  Q     16.450000    3.360000   12.440000
  Q     16.560000    2.230000   11.340000
  Q     16.320000    2.990000   11.690000
  Q     18.090000   11.640000   15.760000
  Q     16.920000   10.620000   15.490000
  Q     17.420000   11.300000   15.330000
  Q     19.030000    7.620000    8.030000
  Q     20.450000    8.220000    7.560000
  Q     19.730000    7.740000    7.490000
  Q      1.300000    4.810000   13.000000
  Q      2.330000    3.820000   12.280000
  Q      2.040000    4.530000   12.680000
  Q     14.590000   16.570000   17.610000
  Q     13.460000   15.620000   17.880000
  Q     14.050000   16.160000   18.110000
  Q      9.050000    8.670000    0.450000
  Q      8.450000   10.040000    1.100000
  Q      9.060000    9.460000    0.850000
  Q      8.970000    4.780000   14.630000
  Q      8.730000    4.830000   13.070000
  Q      9.160000    4.690000   13.800000
  Q      9.550000    5.810000   16.320000
  Q      9.830000    7.130000   16.830000
  Q      9.360000    6.600000   16.400000
  Q      7.240000    1.400000    8.360000
  Q      7.370000    2.940000    8.290000
  Q      6.980000    2.190000    8.190000
  Q      8.360000   15.110000   17.750000
  Q      8.850000   15.900000   18.930000
  Q      8.450000   15.810000   18.230000
  Q      9.780000   16.800000   12.530000
  Q     11.100000   17.190000   11.890000
  Q     10.600000   16.740000   12.390000
  Q     21.160000    3.560000   13.020000
  Q     20.500000    4.900000   12.800000
  Q     21.040000    4.390000   13.200000
  Q     19.280000   17.930000    8.800000
  Q     17.920000   17.960000    8.130000
  Q     18.500000   18.190000    8.690000
  Q     16.850000   12.960000   18.190000
  Q     18.240000   13.480000   18.710000
  Q     17.670000   13.170000   18.130000
  Q     11.370000   16.980000    4.550000
  Q      9.810000   17.350000    4.350000
  Q     10.610000   17.350000    4.740000
  Q     11.520000   19.480000   10.560000
  Q     10.180000   18.990000    9.830000
  Q     10.870000   18.940000   10.370000
  Q      7.670000    7.650000   15.430000
  Q      7.020000    8.130000   14.180000
  Q      7.190000    8.160000   15.000000
  Q      7.850000   17.250000    3.770000
  Q      7.930000   15.920000    2.910000
  Q      8.180000   16.690000    3.200000
  Q     10.940000    9.080000    5.070000
  Q     12.270000    9.860000    5.210000
  Q     11.480000    9.650000    5.350000
  Q     18.800000   15.260000   13.650000
  Q     18.810000   15.560000   12.020000
  Q     19.100000   15.310000   12.820000
  Q      6.870000    5.300000    4.800000
  Q      6.370000    6.160000    5.990000
  Q      6.720000    6.010000    5.220000
  Q     18.040000    6.270000   15.800000
  Q     19.160000    6.720000   14.820000
  Q     18.370000    6.700000   15.100000
  Q      7.610000   13.920000   15.800000
  Q      8.930000   13.190000   16.120000
  Q      8.260000   13.630000   16.310000
  Q      6.430000   16.070000   18.620000
  Q      5.100000   16.380000   17.980000
  Q      5.610000   16.060000   18.540000
  Q      3.010000    6.190000   13.490000
  Q      4.430000    5.800000   13.920000
  Q      3.810000    6.330000   13.720000
  Q      3.170000    9.230000    6.020000
  Q      2.660000    9.370000    4.630000
  Q      2.970000    9.630000    5.320000
  Q     14.090000    2.890000    8.650000
  Q     14.550000    2.990000    7.160000
  Q     14.520000    3.190000    7.990000
  Q      6.830000   13.490000    6.280000
  Q      6.300000   12.080000    5.760000
  Q      6.850000   12.730000    5.920000
  Q     17.420000    6.490000    9.490000
  Q     18.000000    7.910000    9.870000
  Q     17.740000    7.270000    9.360000
  Q     12.390000    5.310000   16.120000
  Q     11.900000    4.640000   17.350000
  Q     11.850000    4.830000   16.530000
  Q     19.480000    3.490000   16.490000
  Q     19.890000    3.820000   15.070000
  Q     19.380000    3.800000   15.700000
  Q      8.560000    7.150000    8.880000
  Q      9.320000    7.040000   10.190000
  Q      8.650000    7.150000    9.720000
  Q     15.780000    4.410000   17.280000
  Q     14.620000    4.260000   16.420000
  Q     15.020000    4.170000   17.130000
  Q      5.390000   17.900000   14.610000
  Q      4.180000   17.100000   14.050000
  Q      4.600000   17.800000   14.330000
  Q      4.090000   12.520000    1.810000
  Q      4.360000   11.220000    2.500000
  Q      4.410000   12.030000    2.410000
  Q     12.050000   12.620000   19.490000
  Q     12.400000   11.080000   19.070000
  Q     12.070000   11.910000   18.990000
  Q      3.610000   15.040000   12.600000
  Q      3.450000   14.430000   11.140000
  Q      3.820000   14.870000   11.780000
  Q     17.880000    4.580000   17.790000
  Q     17.190000    5.950000   18.200000
  Q     17.390000    5.300000   17.690000
  Q      5.500000   16.640000    4.360000
  Q      4.820000   17.580000    3.200000
  Q      5.230000   17.350000    3.960000
  Q      4.640000   12.700000   15.490000
  Q      4.160000   12.430000   14.020000
  Q      4.580000   12.870000   14.650000
  Q     12.120000   20.070000    6.380000
  Q     11.310000   18.820000    5.910000
  Q     11.480000   19.500000    6.370000
  Q      8.810000    2.800000   16.040000
  Q     10.130000    3.740000   16.320000
  Q      9.280000    3.490000   16.360000
  Q      1.040000    8.960000    7.820000
  Q     -0.070000   10.090000    8.150000
  Q      0.250000    9.300000    8.010000
  Q     10.240000   11.420000   19.500000
  Q      9.020000   10.960000   18.760000
  Q      9.480000   11.150000   19.450000
  Q     18.830000   11.180000    7.310000
  Q     19.380000   11.640000    5.990000
  Q     18.760000   11.490000    6.520000
  Q      4.070000   14.550000    8.950000
  Q      2.600000   14.290000    9.180000
  Q      3.410000   14.090000    9.210000
  Q     15.690000   15.580000    4.590000
  Q     15.190000   14.990000    3.170000
  Q     15.400000   14.970000    4.020000
  Q      2.420000    5.070000    6.640000
  Q      3.070000    6.250000    5.840000
  Q      2.470000    5.870000    6.340000
  Q     12.510000   13.740000   16.190000
  Q     12.640000   13.160000   17.580000
  Q     12.740000   13.740000   17.000000
  Q     13.890000    3.350000   11.580000
  Q     13.470000    2.170000   10.820000
  Q     13.320000    2.870000   11.200000
  Q     13.190000   15.300000    4.820000
  Q     12.000000   14.990000    3.950000
  Q     12.560000   15.500000    4.300000
  Q     13.300000    2.050000    5.650000
  Q     14.040000    3.110000    4.660000
  Q     13.930000    2.390000    5.130000
  Q      6.910000   13.850000   13.480000
  Q      8.350000   13.610000   14.010000
  Q      7.650000   14.030000   13.900000
  Q      6.640000   21.070000    9.420000
  Q      7.780000   20.870000    8.470000
  Q      7.320000   21.330000    8.990000
  Q      4.950000    6.690000    4.450000
  Q      4.070000    6.630000    3.240000
  Q      4.250000    6.810000    4.020000
  Q     14.090000    1.210000   16.250000
  Q     15.130000    1.930000   15.350000
  Q     14.750000    1.280000   15.730000
  Q      3.910000   18.620000   17.200000
  Q      3.980000   17.500000   16.160000
  Q      4.060000   17.840000   16.940000
  Q     12.070000   21.440000   12.100000
  Q     13.020000   21.560000   11.050000
  Q     12.330000   21.270000   11.340000
  Q     18.030000    6.500000    5.000000
  Q     19.280000    7.170000    5.500000
  Q     18.800000    6.830000    4.930000
  Q      7.830000    5.060000    8.100000
  Q      7.700000    4.870000    9.720000
  Q      7.540000    4.710000    8.870000
  Q      4.630000   10.970000   16.970000
  Q      3.320000   11.900000   17.030000
  Q      4.180000   11.710000   17.060000
  Q     15.590000    7.410000    4.270000
  Q     15.650000    8.550000    5.420000
  Q     15.290000    8.020000    4.810000
  Q     15.460000    7.020000   19.000000
  Q     14.640000    6.470000   17.870000
  Q     14.910000    7.060000   18.390000
  Q     15.070000    0.650000   10.280000
  Q     14.510000    0.690000    8.960000
  Q     14.440000    0.720000    9.780000
  Q     10.230000   15.870000    5.720000
  Q      9.940000   14.520000    6.550000
  Q      9.760000   15.220000    6.040000
  Q      5.980000    8.050000   11.890000
  Q      7.330000    7.910000   11.190000
  Q      6.810000    8.110000   11.820000
  Q      5.160000    6.370000   17.860000
  Q      3.980000    6.680000   18.590000
  Q      4.510000    6.840000   18.010000
  Q      7.610000   18.060000   16.660000
  Q      6.070000   18.180000   16.930000
  Q      6.840000   18.360000   16.590000
  Q      1.790000   18.170000   11.270000
  Q      0.700000   17.200000   11.730000
  Q      1.080000   17.700000   11.160000
  Q      9.910000    9.380000   19.960000
  Q     10.990000    8.420000   20.580000
  Q     10.460000    8.690000   19.980000
  Q     10.710000    1.830000    9.160000
  Q     11.520000    0.510000    9.580000
  Q     11.230000    1.160000    9.060000
  Q      8.290000    6.390000    6.330000
  Q      9.620000    6.170000    6.970000
  Q      8.800000    6.310000    6.980000
  Q     17.190000    4.740000    5.690000
  Q     17.360000    5.090000    7.230000
  Q     17.090000    5.200000    6.430000
  Q     21.300000   13.550000   15.470000
  Q     20.710000   12.620000   14.400000
  Q     21.320000   12.980000   14.810000
  Q      4.720000   13.190000    4.410000
  Q      4.050000   13.410000    5.760000
  Q      4.340000   13.650000    5.010000
  Q     15.780000    8.410000   15.960000
  Q     17.200000    8.320000   15.540000
  Q     16.570000    8.640000   15.950000
  Q     10.670000   19.650000   13.440000
  Q     10.080000   19.510000   12.040000
  Q     10.040000   19.640000   12.860000
  Q      9.770000    2.890000   10.500000
  Q     11.280000    3.270000   10.290000
  Q     10.430000    3.360000   10.240000
  Q      3.210000    2.700000   10.370000
  Q      4.010000    3.680000   11.280000
  Q      3.500000    3.000000   11.080000
  Q     19.540000    6.930000   18.570000
  Q     21.130000    7.060000   18.640000
  Q     20.370000    6.740000   18.460000
  Q     21.810000   15.520000   16.600000
  Q     20.370000   15.110000   16.300000
  Q     21.150000   15.000000   16.590000
  Q     14.840000    5.220000    3.550000
  Q     14.550000    4.080000    2.630000
  Q     14.440000    4.530000    3.320000
  Q      6.550000   18.420000    4.880000
  Q      7.400000   19.580000    5.240000
  Q      7.270000   18.790000    5.150000
  Q      5.790000    4.990000    9.500000
  Q      4.890000    5.820000   10.490000
  Q      5.060000    5.190000    9.910000
  Q      7.490000    5.130000   16.580000
  Q      6.350000    4.130000   16.080000
  Q      6.690000    4.880000   16.320000
  Q     11.370000    4.900000    2.710000
  Q     12.640000    5.090000    3.490000
  Q     11.830000    5.240000    3.310000
  Q     12.240000   18.000000   17.550000
  Q     12.590000   19.260000   18.320000
  Q     12.210000   18.810000   17.690000
  Q     20.430000    3.440000    9.470000
  Q     19.980000    3.170000   10.890000
  Q     20.260000    2.940000   10.140000
  Q      2.570000   15.490000   14.890000
  Q      3.920000   14.580000   14.650000
  Q      3.310000   15.200000   14.480000
  Q     19.540000    5.310000   10.850000
  Q     18.320000    5.070000   11.880000
  Q     19.100000    4.940000   11.500000
  Q      2.230000    4.910000    9.470000
  Q      1.800000    5.150000   10.970000
  Q      1.770000    5.210000   10.120000
  Q     12.500000    8.760000    3.180000
  Q     13.910000    8.950000    3.750000
  Q     13.260000    9.130000    3.250000
  Q      3.540000   16.770000    5.200000
  Q      3.580000   15.300000    5.490000
  Q      3.460000   16.100000    5.680000
  Q     10.920000    7.050000    3.510000
  Q     10.100000    8.170000    2.790000
  Q     10.790000    7.820000    3.140000
  Q     11.230000   15.360000   13.810000
  Q     11.290000   15.560000   15.390000
  Q     11.560000   15.310000   14.620000
  Q     19.610000   12.200000   12.060000
  Q     19.820000   13.720000   12.180000
  Q     20.040000   12.930000   11.970000
  Q     21.590000   10.360000   14.940000
  Q     21.640000    9.190000   14.130000
  Q     21.260000    9.840000   14.370000
  Q      5.370000   21.340000   10.980000
  Q      4.920000   19.920000   10.860000
  Q      5.220000   20.610000   10.570000
  Q     18.570000    9.640000   17.820000
  Q     18.470000   11.150000   17.820000
  Q     18.860000   10.410000   17.810000
  Q      8.000000   19.890000   13.600000
  Q      7.100000   19.570000   14.800000
  Q      7.350000   20.000000   14.100000
  Q     17.170000    8.620000   19.310000
  Q     16.780000    8.180000   17.820000
  Q     17.230000    8.210000   18.560000
  Q      5.020000    5.860000    8.070000
  Q      5.470000    7.390000    7.740000
  Q      5.250000    6.550000    7.580000
  Q      2.360000   12.020000   12.450000
  Q      2.670000   10.700000   13.160000
  Q      2.830000   11.400000   12.700000
  Q     17.720000   17.750000   10.810000
  Q     17.020000   18.500000   11.970000
  Q     17.430000   17.880000   11.590000
  Q      6.600000    4.690000   12.270000
  Q      7.260000    5.940000   11.770000
  Q      7.210000    5.140000   11.970000
  Q      4.750000   12.480000   18.910000
  Q      5.410000   13.880000   19.120000
  Q      5.180000   13.100000   19.340000
  Q     14.020000   13.780000    1.490000
  Q     15.210000   13.890000    0.570000
  Q     14.590000   14.230000    1.020000
  Q      5.100000    8.530000   17.210000
  Q      5.950000    9.280000   16.060000
  Q      5.330000    9.180000   16.660000
  Q      0.530000   13.390000   13.140000
  Q      0.110000   13.170000   11.830000
  Q      0.680000   13.350000   12.370000
  Q     12.900000   10.000000   15.370000
  Q     13.410000   11.390000   15.440000
  Q     13.250000   10.610000   15.770000
  Q      4.380000   16.360000    7.300000
  Q      5.730000   15.770000    7.840000
  Q      5.030000   16.250000    7.890000
  Q     14.230000   16.350000    1.540000
  Q     13.640000   16.750000    2.870000
  Q     14.180000   16.840000    2.250000
  Q      0.950000   14.470000   10.760000
  Q      0.190000   15.410000    9.740000
  Q      0.720000   14.760000    9.980000
  Q      6.290000   10.600000    2.580000
  Q      7.830000   11.010000    3.010000
  Q      7.190000   10.590000    2.620000
  Q     20.420000   16.060000    6.990000
  Q     19.850000   15.260000    5.850000
  Q     19.800000   15.660000    6.560000
  Q     21.040000   15.830000   13.290000
  Q     21.000000   17.310000   13.280000
  Q     21.370000   16.580000   13.280000
  Q      4.090000    7.530000   12.390000
  Q      3.690000    8.530000   11.180000
  Q      4.040000    7.860000   11.590000
  Q      8.900000    1.070000   11.570000
  Q      8.210000    0.660000   10.230000
  Q      8.610000    1.170000   10.780000
  Q      4.640000   10.380000    5.240000
  Q      6.160000   10.080000    5.040000
  Q      5.450000   10.550000    5.140000
  Q      6.830000   10.440000   17.760000
  Q      7.360000   11.810000   17.550000
  Q      7.430000   10.990000   17.580000
  Q      3.630000    9.200000   15.450000
  Q      2.220000    9.620000   15.890000
  Q      2.820000    9.400000   15.340000
  Q      4.660000    3.360000   13.580000
  Q      6.210000    3.510000   13.850000
  Q      5.410000    3.730000   13.660000
  Q     20.890000    5.890000    8.240000
  Q     21.930000    5.340000    9.240000
  Q     21.160000    5.370000    8.840000
  Q     17.020000    9.820000    2.870000
  Q     16.140000   10.880000    3.500000
  Q     16.470000   10.470000    2.870000
  Q     14.390000    8.360000    0.990000
  Q     15.260000    9.390000    1.700000
  Q     15.070000    8.800000    1.140000
  Q      1.810000    7.850000   13.970000
  Q      0.670000    6.910000   14.190000
  Q      1.120000    7.440000   13.740000
  Q     17.840000   16.190000    6.200000
  Q     16.360000   16.230000    6.990000
  Q     16.920000   16.260000    6.320000
  Q      4.150000   17.930000   11.000000
  Q      3.890000   18.540000   12.460000
  Q      3.790000   18.450000   11.590000
  Q      8.850000   16.690000   14.910000
  Q      9.770000   17.780000   14.980000
  Q      9.400000   17.130000   15.310000
  Q      1.800000    9.360000   10.170000
  Q      2.170000   10.620000   11.000000
  Q      2.240000   10.070000   10.380000
  Q     10.510000   11.260000    2.920000
  Q     10.690000   11.050000    4.440000
  Q     10.330000   11.360000    3.740000
  Q      3.880000    8.730000    8.180000
  Q      2.870000    7.630000    7.650000
  Q      3.180000    8.420000    7.770000
  Q     11.630000    1.730000   15.360000
  Q     10.970000    0.750000   16.270000
  Q     11.560000    1.320000   16.080000
  Q     21.880000   12.500000    5.520000
  Q     21.680000   11.980000    6.870000
  Q     21.580000   11.960000    6.050000
  Q     13.950000   18.110000    7.720000
  Q     12.900000   17.650000    8.690000
  Q     13.600000   17.600000    8.290000
  Q      6.670000   13.340000    2.500000
  Q      7.090000   13.640000    3.930000
  Q      7.130000   13.670000    3.090000
  Q     16.870000   12.390000    5.650000
  Q     15.920000   13.080000    4.610000
  Q     16.210000   12.470000    5.120000
  Q     15.210000   19.140000   16.350000
  Q     14.500000   17.950000   15.580000
  Q     15.030000   18.310000   16.180000
  Q     16.760000    6.480000    2.270000
  Q     15.940000    7.710000    2.120000
  Q     16.160000    6.990000    2.510000
  Q     10.460000    1.160000   13.660000
  Q     10.040000   -0.240000   13.270000
  Q      9.920000    0.570000   13.450000
  Q      8.620000   14.080000    1.390000
  Q      8.210000   13.100000    0.290000
  Q      8.570000   13.780000    0.620000
  Q     10.440000   16.730000   17.170000
  Q     10.950000   15.560000   18.100000
  Q     11.000000   16.240000   17.590000
  Q     10.200000   13.160000    3.530000
  Q      9.900000   14.500000    3.850000
  Q     10.250000   13.990000    3.390000
  Q      7.110000    2.670000    4.020000
  Q      8.190000    3.400000    4.810000
  Q      7.660000    3.290000    4.140000
  Q     14.840000   13.390000   14.110000
  Q     16.250000   12.830000   14.390000
  Q     15.660000   13.300000   13.970000
  Q     13.290000   14.410000   21.340000
  Q     13.250000   14.610000   19.890000
  Q     12.930000   14.400000   20.610000
  Q     16.880000    4.400000   10.100000
  Q     16.370000    4.070000    8.710000
  Q     16.880000    4.450000    9.250000
  Q      9.200000    9.490000   15.330000
  Q      9.020000   10.590000   16.350000
  Q      9.460000   10.150000   15.780000
  Q     10.980000    9.360000   17.260000
  Q     11.180000    8.250000   18.320000
  Q     11.260000    8.630000   17.540000
  Q     10.950000   15.150000   20.550000
  Q      9.490000   14.700000   20.660000
  Q     10.150000   15.030000   20.280000
  Q     11.810000    2.880000   12.920000
  Q     10.820000    3.710000   13.780000
  Q     11.400000    3.080000   13.610000
  Q     20.030000   11.820000    9.930000
  Q     19.280000   10.470000    9.920000
  Q     19.380000   11.300000    9.720000
  Q     17.330000    3.790000   14.920000
  Q     15.900000    3.990000   14.220000
  Q     16.640000    3.580000   14.420000
  Q     18.160000   10.990000   13.530000
  Q     19.580000   10.540000   13.210000
  Q     18.820000   10.910000   13.040000
  Q      9.840000    6.930000   13.890000
  Q     10.750000    7.210000   12.560000
  Q     10.230000    7.400000   13.250000
  Q     11.460000    5.470000    5.220000
  Q     11.980000    5.560000    6.590000
  Q     11.390000    5.580000    6.030000
  Q     18.700000    8.600000    3.840000
  Q     19.690000    9.720000    3.500000
  Q     19.020000    9.200000    3.360000
  Q      0.170000   12.740000    9.100000
  Q      0.950000   11.450000    8.940000
  Q      0.280000   11.910000    8.930000
  Q     17.630000   15.500000    9.820000
  Q     18.840000   14.600000    9.740000
  Q     18.410000   15.280000    9.990000
  Q      7.260000    7.350000    3.530000
  Q      7.530000    8.640000    2.870000
  Q      7.720000    7.870000    3.110000
  Q     10.370000   10.930000    0.730000
  Q     10.390000   12.450000    0.850000
  Q     10.730000   11.670000    0.920000
  Q     17.130000    9.650000    6.440000
  Q     16.740000    8.530000    7.340000
  Q     16.580000    9.150000    6.820000
  Q     14.820000   11.530000   17.750000
  Q     14.490000   12.990000   17.600000
  Q     14.970000   12.350000   17.790000
  Q      8.380000   18.700000    7.650000
  Q      9.710000   19.510000    7.540000
  Q      8.870000   19.380000    7.770000
  Q     13.340000   11.430000    2.850000
  Q     12.450000   12.560000    2.560000
  Q     13.170000   12.230000    2.690000
  Q      2.980000   12.810000    7.730000
  Q      2.590000   11.660000    6.790000
  Q      2.800000   12.440000    6.970000
  Q     13.530000    9.780000   17.500000
  Q     14.000000    8.940000   18.680000
  Q     13.830000    9.670000   18.280000
  Q     19.120000    8.650000   11.880000
  Q     20.350000    8.910000   10.970000
  Q     19.530000    8.810000   11.160000
  Q      0.820000    7.130000   10.410000
  Q      1.000000    7.800000   11.720000
  Q      0.770000    7.770000   10.940000
  Q     11.780000   19.120000   15.640000
  Q     12.360000   18.470000   14.440000
  Q     11.910000   19.050000   14.830000
  Q      0.930000   11.500000   17.480000
  Q      1.140000   12.000000   16.110000
  Q      1.360000   11.570000   16.770000
  Q      6.420000    8.500000   19.880000
  Q      6.030000    9.710000   20.850000
  Q      5.970000    9.200000   20.140000
  Q     20.610000    6.550000   16.190000
  Q     21.870000    5.780000   15.900000
  Q     21.360000    6.430000   15.850000
  Q      9.930000    3.800000    6.370000
  Q     10.260000    2.430000    6.010000
  Q      9.750000    3.050000    6.100000
  Q     18.070000   14.500000   16.050000
  Q     18.350000   15.940000   16.030000
  Q     18.490000   15.170000   15.810000
  Q      8.550000    9.780000    6.120000
  Q      8.180000    8.660000    5.120000
  Q      8.040000    9.260000    5.690000
  Q     15.730000   19.920000   13.450000
  Q     16.860000   20.940000   13.570000
  Q     16.400000   20.340000   13.180000
  Q      1.890000   13.480000    5.140000
  Q      1.310000   14.300000    4.040000
  Q      1.280000   13.790000    4.710000

----------------------------
CARTESIAN COORDINATES (A.U.)
----------------------------
  NO LB      ZA    FRAG     MASS         X           Y           Z
   0 C     6.0000    0    12.011   24.131803   19.615357   20.957063
   1 H     1.0000    0     1.008   25.208947   20.182275   19.294104
   2 H     1.0000    0     1.008   23.338118   17.668939   20.522426
   3 C     6.0000    0    12.011   21.826337   21.448392   21.561775
   4 H     1.0000    0     1.008   21.032652   20.805885   23.281426
   5 H     1.0000    0     1.008   22.204282   23.357015   21.977515
   6 C     6.0000    0    12.011   19.955508   20.957063   19.501974
   7 H     1.0000    0     1.008   20.049994   18.935056   18.953953
   8 H     1.0000    0     1.008   20.503529   22.034207   17.971296
   9 C     6.0000    0    12.011   17.290994   21.561775   20.333453
  10 H     1.0000    0     1.008   17.120919   23.602679   20.692501
  11 H     1.0000    0     1.008   16.761871   20.579118   21.977515
  12 O     8.0000    0    15.999   15.514652   21.240522   18.311446
  13 H     1.0000    0     1.008   13.889487   21.372803   19.124028
  14 O     8.0000    0    15.999   25.851454   19.766535   23.073556
  15 H     1.0000    0     1.008   27.382132   19.124028   22.412152
  16 O     8.0000    0    15.999   26.399474   12.226528   23.281426
  17 H     1.0000    0     1.008   25.927043   12.132042   21.410597
  18 H     1.0000    0     1.008   25.530200   13.757206   23.923933
  19 O     8.0000    0    15.999   20.579118   27.476618   18.179165
  20 H     1.0000    0     1.008   19.067337   28.194714   18.859467
  21 H     1.0000    0     1.008   21.826337   27.703385   19.445282
  22 O     8.0000    0    15.999   24.831001   27.495515   22.072001
  23 H     1.0000    0     1.008   25.775864   29.026193   22.279871
  24 H     1.0000    0     1.008   25.889248   26.418371   21.051549
  25 O     8.0000    0    15.999   15.420165   28.402584   19.237412
  26 H     1.0000    0     1.008   14.456405   27.174262   20.031097
  27 H     1.0000    0     1.008   14.683172   29.952159   19.917713
  28 O     8.0000    0    15.999   25.114460   13.587131   18.292549
  29 H     1.0000    0     1.008   25.624686   12.793446   16.780768
  30 H     1.0000    0     1.008   24.812104   15.212295   17.574453
  31 O     8.0000    0    15.999   29.612009   16.931946   21.183830
  32 H     1.0000    0     1.008   30.178926   18.405933   20.276761
  33 H     1.0000    0     1.008   28.875015   15.798110   20.068892
  34 O     8.0000    0    15.999   27.287645   24.944385   18.254754
  35 H     1.0000    0     1.008   28.194714   23.678268   19.180720
  36 H     1.0000    0     1.008   26.664036   24.245186   16.686282
  37 O     8.0000    0    15.999   25.492406   32.654468   26.739625
  38 H     1.0000    0     1.008   24.812104   31.029303   27.174262
  39 H     1.0000    0     1.008   27.023084   32.163139   25.756967
  40 O     8.0000    0    15.999   31.879680   11.357254   23.810549
  41 H     1.0000    0     1.008   30.405693   12.396603   23.583782
  42 H     1.0000    0     1.008   32.522187   11.848583   25.435714
  43 O     8.0000    0    15.999   10.903720   17.423275   15.004426
  44 H     1.0000    0     1.008   12.302117   17.668939   13.776104
  45 H     1.0000    0     1.008   10.790336   19.029542   15.892597
  46 O     8.0000    0    15.999   18.783878   24.301878   27.646693
  47 H     1.0000    0     1.008   20.238967   25.379022   27.627796
  48 H     1.0000    0     1.008   19.142926   22.431049   27.552207
  49 O     8.0000    0    15.999   21.164933   24.339673   14.135151
  50 H     1.0000    0     1.008   19.709844   23.205837   14.210741
  51 H     1.0000    0     1.008   20.881474   25.303433   15.760316
  52 O     8.0000    0    15.999   10.544672   20.352350   20.031097
  53 H     1.0000    0     1.008   11.395049   19.369693   21.353905
  54 H     1.0000    0     1.008    8.730535   20.541323   20.276761
  55 O     8.0000    0    15.999   12.075350   25.265638   21.996412
  56 H     1.0000    0     1.008   10.620261   26.191604   22.487741
  57 H     1.0000    0     1.008   11.206076   23.772755   21.297214
  58 O     8.0000    0    15.999   13.719412   28.213611   13.965076
  59 H     1.0000    0     1.008   15.004426   28.950604   13.020213
  60 H     1.0000    0     1.008   14.475302   27.646693   15.533549
  61 O     8.0000    0    15.999   31.596221   21.901926   20.182275
  62 H     1.0000    0     1.008   32.144242   21.958618   21.901926
  63 H     1.0000    0     1.008   32.805646   22.790097   19.086234
  64 O     8.0000    0    15.999   29.800981   29.460830   17.007535
  65 H     1.0000    0     1.008   29.063988   27.892358   17.347686
  66 H     1.0000    0     1.008   28.383687   30.481283   17.366583
  67 O     8.0000    0    15.999   26.550652   11.602918   12.358809
  68 H     1.0000    0     1.008   26.985289   13.322569   11.810788
  69 H     1.0000    0     1.008   28.270303   11.111590   12.585576
  70 O     8.0000    0    15.999   10.847028   31.690707   19.955508
  71 H     1.0000    0     1.008   10.469083   31.256070   18.216960
  72 H     1.0000    0     1.008   10.072240   30.292310   20.786987
  73 O     8.0000    0    15.999   23.923933   16.270542   26.040426
  74 H     1.0000    0     1.008   24.793207   17.650042   25.246741
  75 H     1.0000    0     1.008   22.090899   16.535104   25.927043
  76 O     8.0000    0    15.999   25.095563   24.282981   26.399474
  77 H     1.0000    0     1.008   25.662481   23.262529   24.982179
  78 H     1.0000    0     1.008   24.736515   25.851454   25.643584
  79 O     8.0000    0    15.999   29.082885   30.160029   24.131803
  80 H     1.0000    0     1.008   29.593111   28.478173   24.547542
  81 H     1.0000    0     1.008   30.273413   30.840331   22.941275
  82 O     8.0000    0    15.999   20.465734   12.132042   20.616912
  83 H     1.0000    0     1.008   21.845234   12.680062   19.728741
  84 H     1.0000    0     1.008   20.446837   10.374596   20.163378
  85 O     8.0000    0    15.999   15.004426   31.860783   24.037316
  86 H     1.0000    0     1.008   15.117809   30.084440   24.169597
  87 H     1.0000    0     1.008   13.719412   32.408803   22.752303
  88 O     8.0000    0    15.999   17.196508   21.070446   13.624925
  89 H     1.0000    0     1.008   16.308337   22.109796   12.377706
  90 H     1.0000    0     1.008   16.251645   21.240522   15.193398
  91 O     8.0000    0    15.999   26.626241    8.258103   27.571104
  92 H     1.0000    0     1.008   26.418371    9.391939   26.097118
  93 H     1.0000    0     1.008   25.076666    7.445521   27.797871
  94 O     8.0000    0    15.999   25.322330   13.303672   29.876570
  95 H     1.0000    0     1.008   24.471953   14.040665   28.459276
  96 H     1.0000    0     1.008   25.001077   14.513097   31.274968
  97 O     8.0000    0    15.999   25.001077   17.706734   14.588686
  98 H     1.0000    0     1.008   26.040426   19.086234   14.229638
  99 H     1.0000    0     1.008   23.527090   18.065782   13.587131
 100 O     8.0000    0    15.999   26.248296   22.449946   13.379261
 101 H     1.0000    0     1.008   24.604234   23.338118   13.152494
 102 H     1.0000    0     1.008   27.325440   22.827892   11.980864
 103 Q     0.6645    0     0.000   31.085995    6.349480   23.508193
 104 Q     0.6645    0     0.000   31.293865    4.214089   21.429494
 105 Q    -1.3290    0     0.000   30.840331    5.650281   22.090899
 106 Q     0.6645    0     0.000   34.185146   21.996412   29.782084
 107 Q     0.6645    0     0.000   31.974166   20.068892   29.271858
 108 Q    -1.3290    0     0.000   32.919029   21.353905   28.969502
 109 Q     0.6645    0     0.000   35.961488   14.399713   15.174501
 110 Q     0.6645    0     0.000   38.644899   15.533549   14.286330
 111 Q    -1.3290    0     0.000   37.284297   14.626480   14.154049
 112 Q     0.6645    0     0.000    2.456644    9.089583   24.566440
 113 Q     0.6645    0     0.000    4.403062    7.218754   23.205837
 114 Q    -1.3290    0     0.000    3.855041    8.560459   23.961727
 115 Q     0.6645    0     0.000   27.571104   31.312762   33.278077
 116 Q     0.6645    0     0.000   25.435714   29.517522   33.788303
 117 Q    -1.3290    0     0.000   26.550652   30.537974   34.222940
 118 Q     0.6645    0     0.000   17.102022   16.383926    0.850377
 119 Q     0.6645    0     0.000   15.968186   18.972850    2.078699
 120 Q    -1.3290    0     0.000   17.120919   17.876809    1.606267
 121 Q     0.6645    0     0.000   16.950843    9.032891   27.646693
 122 Q     0.6645    0     0.000   16.497309    9.127377   24.698721
 123 Q    -1.3290    0     0.000   17.309891    8.862816   26.078221
 124 Q     0.6645    0     0.000   18.046885   10.979309   30.840331
 125 Q     0.6645    0     0.000   18.576008   13.473747   31.804091
 126 Q    -1.3290    0     0.000   17.687837   12.472192   30.991509
 127 Q     0.6645    0     0.000   13.681617    2.645617   15.798110
 128 Q     0.6645    0     0.000   13.927282    5.555795   15.665830
 129 Q    -1.3290    0     0.000   13.190288    4.138500   15.476857
 130 Q     0.6645    0     0.000   15.798110   28.553762   33.542639
 131 Q     0.6645    0     0.000   16.724076   30.046646   35.772516
 132 Q    -1.3290    0     0.000   15.968186   29.876570   34.449707
 133 Q     0.6645    0     0.000   18.481522   31.747399   23.678268
 134 Q     0.6645    0     0.000   20.975960   32.484392   22.468844
 135 Q    -1.3290    0     0.000   20.031097   31.634015   23.413707
 136 Q     0.6645    0     0.000   39.986605    6.727425   24.604234
 137 Q     0.6645    0     0.000   38.739386    9.259658   24.188495
 138 Q    -1.3290    0     0.000   39.759838    8.295898   24.944385
 139 Q     0.6645    0     0.000   36.433920   33.882790   16.629590
 140 Q     0.6645    0     0.000   33.863892   33.939481   15.363473
 141 Q    -1.3290    0     0.000   34.959933   34.374118   16.421720
 142 Q     0.6645    0     0.000   31.841885   24.490851   34.374118
 143 Q     0.6645    0     0.000   34.468605   25.473508   35.356776
 144 Q    -1.3290    0     0.000   33.391461   24.887693   34.260735
 145 Q     0.6645    0     0.000   21.486186   32.087550    8.598254
 146 Q     0.6645    0     0.000   18.538213   32.786748    8.220309
 147 Q    -1.3290    0     0.000   20.049994   32.786748    8.957302
 148 Q     0.6645    0     0.000   21.769645   36.811865   19.955508
 149 Q     0.6645    0     0.000   19.237412   35.885899   18.576008
 150 Q    -1.3290    0     0.000   20.541323   35.791413   19.596460
 151 Q     0.6645    0     0.000   14.494199   14.456405   29.158474
 152 Q     0.6645    0     0.000   13.265877   15.363473   26.796317
 153 Q    -1.3290    0     0.000   13.587131   15.420165   28.345892
 154 Q     0.6645    0     0.000   14.834350   32.597776    7.124268
 155 Q     0.6645    0     0.000   14.985528   30.084440    5.499103
 156 Q    -1.3290    0     0.000   15.457960   31.539529    6.047124
 157 Q     0.6645    0     0.000   20.673604   17.158713    9.580911
 158 Q     0.6645    0     0.000   23.186940   18.632700    9.845473
 159 Q    -1.3290    0     0.000   21.694056   18.235857   10.110035
 160 Q     0.6645    0     0.000   35.526851   28.837221   25.794762
 161 Q     0.6645    0     0.000   35.545749   29.404139   22.714508
 162 Q    -1.3290    0     0.000   36.093769   28.931707   24.226289
 163 Q     0.6645    0     0.000   12.982419   10.015549    9.070685
 164 Q     0.6645    0     0.000   12.037555   11.640713   11.319460
 165 Q    -1.3290    0     0.000   12.698960   11.357254    9.864370
 166 Q     0.6645    0     0.000   34.090659   11.848583   29.857673
 167 Q     0.6645    0     0.000   36.207153   12.698960   28.005741
 168 Q    -1.3290    0     0.000   34.714269   12.661165   28.534865
 169 Q     0.6645    0     0.000   14.380816   26.304988   29.857673
 170 Q     0.6645    0     0.000   16.875254   24.925488   30.462385
 171 Q    -1.3290    0     0.000   15.609138   25.756967   30.821433
 172 Q     0.6645    0     0.000   12.150939   30.367899   35.186701
 173 Q     0.6645    0     0.000    9.637603   30.953714   33.977276
 174 Q    -1.3290    0     0.000   10.601364   30.349002   35.035523
 175 Q     0.6645    0     0.000    5.688076   11.697405   25.492406
 176 Q     0.6645    0     0.000    8.371487   10.960412   26.304988
 177 Q    -1.3290    0     0.000    7.199857   11.961966   25.927043
 178 Q     0.6645    0     0.000    5.990432   17.442172   11.376151
 179 Q     0.6645    0     0.000    5.026672   17.706734    8.749432
 180 Q    -1.3290    0     0.000    5.612487   18.198063   10.053343
 181 Q     0.6645    0     0.000   26.626241    5.461309   16.346131
 182 Q     0.6645    0     0.000   27.495515    5.650281   13.530439
 183 Q    -1.3290    0     0.000   27.438823    6.028226   15.098912
 184 Q     0.6645    0     0.000   12.906829   25.492406   11.867480
 185 Q     0.6645    0     0.000   11.905275   22.827892   10.884823
 186 Q    -1.3290    0     0.000   12.944624   24.056214   11.187179
 187 Q     0.6645    0     0.000   32.919029   12.264323   17.933501
 188 Q     0.6645    0     0.000   34.015070   14.947734   18.651597
 189 Q    -1.3290    0     0.000   33.523742   13.738309   17.687837
 190 Q     0.6645    0     0.000   23.413707   10.034446   30.462385
 191 Q     0.6645    0     0.000   22.487741    8.768329   32.786748
 192 Q    -1.3290    0     0.000   22.393255    9.127377   31.237173
 193 Q     0.6645    0     0.000   36.811865    6.595144   31.161584
 194 Q     0.6645    0     0.000   37.586653    7.218754   28.478173
 195 Q    -1.3290    0     0.000   36.622892    7.180959   29.668700
 196 Q     0.6645    0     0.000   16.176056   13.511542   16.780768
 197 Q     0.6645    0     0.000   17.612248   13.303672   19.256309
 198 Q    -1.3290    0     0.000   16.346131   13.511542   18.368138
 199 Q     0.6645    0     0.000   29.819878    8.333692   32.654468
 200 Q     0.6645    0     0.000   27.627796    8.050233   31.029303
[...]
 347   Q   :    0.150218746    0.239249690    0.072252683
 348   Q   :    0.049158539   -0.153351202   -0.252082907
 349   Q   :   -0.184854810   -0.085419452    0.174905190
 350   Q   :   -0.228462688   -0.104130339   -0.087523592
 351   Q   :    0.031092953    0.323272711    0.025445580
 352   Q   :    0.207412317   -0.206096964    0.071268218
 353   Q   :    0.221938017   -0.043147895   -0.121171900
 354   Q   :   -0.034556645    0.191048650    0.180564232
 355   Q   :   -0.193543505   -0.146843584   -0.049521143
 356   Q   :    0.246696338    0.061996482    0.075217628
 357   Q   :   -0.098776201   -0.265767571   -0.081119714
 358   Q   :   -0.148076197    0.201948166    0.000298077
 359   Q   :   -0.156437632   -0.134775548   -0.223571393
 360   Q   :    0.256546639   -0.058555488    0.054548266
 361   Q   :   -0.105420123    0.189132347    0.155909916
 362   Q   :    0.025541615   -0.291047547   -0.045975972
 363   Q   :    0.133296497    0.137742210    0.212580004
 364   Q   :   -0.153496287    0.160266815   -0.159358241
 365   Q   :    0.052152031    0.173318154   -0.210777923
 366   Q   :   -0.091632291    0.091123093    0.269781843
 367   Q   :    0.043297109   -0.278041075   -0.057968754
 368   Q   :   -0.217007063    0.079184597    0.125081646
 369   Q   :    0.158747755   -0.159459631    0.055456749
 370   Q   :    0.045897377    0.089023461   -0.165665111
 371   Q   :    0.135859625    0.125091754   -0.198752184
 372   Q   :   -0.222434095    0.040881420    0.104713855
 373   Q   :    0.078565137   -0.166396762    0.087977210
 374   Q   :    0.164509806   -0.115111101   -0.216373921
 375   Q   :    0.014883327   -0.026456426    0.273217686
 376   Q   :   -0.181171969    0.135888924   -0.070991129
 377   Q   :   -0.236383806   -0.124990953   -0.006931927
 378   Q   :    0.207306304   -0.062511730    0.176244954
 379   Q   :    0.031158077    0.194438894   -0.176281136
 380   Q   :    0.033203880    0.233241903   -0.188124136
 381   Q   :    0.043358044   -0.266990130   -0.074911633
 382   Q   :   -0.097202901    0.039771605    0.258560269
 383   Q   :    0.022139638   -0.235958949    0.122446491
 384   Q   :   -0.232895348    0.106790574   -0.109827358
 385   Q   :    0.198987304    0.127906755   -0.015033049
 386   Q   :   -0.101540642   -0.002496878   -0.228437171
 387   Q   :   -0.090217340    0.073723079    0.242305150
 388   Q   :    0.186460552   -0.079202115   -0.010154308
 389   Q   :   -0.143189814   -0.225558310    0.020647280
 390   Q   :   -0.085804673    0.245967544    0.065174407
 391   Q   :    0.243657730   -0.017627666   -0.094088724
 392   Q   :    0.131797463    0.159266373    0.195020221
 393   Q   :    0.179429895   -0.272670299   -0.095892685
 394   Q   :   -0.302183782    0.109321330   -0.092411577
 395   Q   :    0.046401333    0.240533219    0.149989577
 396   Q   :   -0.110131480   -0.260615851    0.128960492
 397   Q   :    0.058801985    0.020322642   -0.275038886
 398   Q   :   -0.122029082   -0.279600247    0.004456660
 399   Q   :   -0.153390396    0.248442922    0.000023555
 400   Q   :    0.283467775    0.027635109   -0.007702768
 401   Q   :    0.232826180   -0.056287580   -0.172486550
 402   Q   :   -0.072576570   -0.151906054    0.219432467
 403   Q   :   -0.167400585    0.210547272   -0.052369808
 404   Q   :   -0.030385219    0.134832447    0.249718297
 405   Q   :   -0.141263551   -0.013511441   -0.208647169
 406   Q   :    0.170869775   -0.121067629   -0.031742994
 407   Q   :   -0.064178038   -0.206466305    0.146994273
 408   Q   :    0.066828522    0.234892290    0.051955644
 409   Q   :   -0.009218814   -0.031540764   -0.195703704
 410   Q   :   -0.186498757    0.220359903   -0.090724303
 411   Q   :   -0.069654293   -0.221354968    0.143913305
 412   Q   :    0.260507274   -0.004738350   -0.055796240
 413   Q   :    0.088074410   -0.038424972   -0.267089353
 414   Q   :   -0.153811896    0.218563027    0.122524144
 415   Q   :    0.068474684   -0.181059161    0.146278515
 416   Q   :   -0.233769017   -0.157955349    0.114789174
 417   Q   :    0.002967730    0.288168358   -0.069937580
 418   Q   :    0.225048597   -0.131555846   -0.053654068
 419   Q   :   -0.138520175   -0.185588578   -0.138933509
 420   Q   :    0.075542757    0.263025678   -0.092296545
 421   Q   :    0.064124562   -0.081152325    0.239479176
 422   Q   :   -0.167671627   -0.142622770    0.137062844
 423   Q   :    0.219098888   -0.136174751   -0.156946258
 424   Q   :   -0.048996370    0.278709293    0.008235089
 425   Q   :   -0.054160781   -0.180971774    0.152405948
 426   Q   :    0.181941582    0.039341661   -0.175648004
 427   Q   :   -0.122623917    0.143928620    0.027007440
 428   Q   :   -0.087270960    0.009604223    0.329127055
 429   Q   :   -0.233784636   -0.065953723   -0.193613135
 430   Q   :    0.319375157    0.059609606   -0.125379016
 431   Q   :   -0.136523023   -0.228549339   -0.168056607
 432   Q   :    0.044868275    0.233887321   -0.116124126
 433   Q   :    0.090454369    0.002066017    0.278573692
 434   Q   :   -0.172754228    0.019829457   -0.161093505
 435   Q   :    0.211908271   -0.163303675   -0.009820318
 436   Q   :   -0.047511515    0.156743035    0.170003878
 437   Q   :    0.000984806   -0.157720663   -0.217166108
 438   Q   :   -0.204278918   -0.042965324    0.217777569
 439   Q   :    0.203463600    0.215373780   -0.003363715
 440   Q   :    0.061513009   -0.087498082    0.249298714
 441   Q   :   -0.172824081    0.196237303   -0.056770988
 442   Q   :    0.100046267   -0.097449985   -0.198238917
 443   Q   :   -0.256488579   -0.000078594   -0.012615657
 444   Q   :    0.198081215    0.136272130    0.121974660
 445   Q   :    0.047869251   -0.129646303   -0.108324443
 446   Q   :    0.221397579    0.129504227    0.128403616
 447   Q   :    0.039692915   -0.149270951   -0.277696505
 448   Q   :   -0.252832136    0.016839998    0.153924456
 449   Q   :   -0.131307342   -0.271531746    0.011209648
 450   Q   :   -0.158459764    0.280289335    0.004263455
 451   Q   :    0.296115412   -0.007833737   -0.012235098
 452   Q   :    0.022228129   -0.079230599    0.237667718
 453   Q   :   -0.108683937    0.222729743   -0.118131893
 454   Q   :    0.079369321   -0.131529695   -0.134417724
 455   Q   :    0.094950574   -0.047433191    0.257724137
 456   Q   :   -0.136103644   -0.189153819   -0.183582557
 457   Q   :    0.029842644    0.230610207   -0.084239327
 458   Q   :   -0.265102166   -0.066866313    0.032141071
 459   Q   :    0.215683800   -0.158911875   -0.037992202
 460   Q   :    0.046941974    0.218913663   -0.000387504
 461   Q   :   -0.215366389   -0.180403743    0.062305569
 462   Q   :   -0.037824592    0.291429243   -0.007282781
 463   Q   :    0.236379050   -0.110829387   -0.053846186
 464   Q   :    0.267564957   -0.065295970    0.040739941
 465   Q   :   -0.202602473    0.068282328    0.196461820
 466   Q   :   -0.066906166   -0.005583652   -0.235353944
 467   Q   :   -0.256410685   -0.140067072   -0.023537758
 468   Q   :    0.268692298   -0.085487600    0.066579164
 469   Q   :   -0.015931371    0.220426009   -0.036037971
 470   Q   :   -0.072871893    0.191072126   -0.206893553
 471   Q   :    0.249621550    0.005963465    0.119791351
 472   Q   :   -0.169364519   -0.192439021    0.083405695
 473   Q   :    0.166354793   -0.223838146    0.017140420
 474   Q   :   -0.120191215    0.132744260    0.245749217
 475   Q   :   -0.049712205    0.092618019   -0.261990761
 476   Q   :   -0.257110737   -0.170060497   -0.045834886
 477   Q   :    0.055003454    0.181869929    0.201267036
 478   Q   :    0.188832935   -0.011003599   -0.174759396
 479   Q   :    0.237298051    0.126647993    0.087365240
 480   Q   :   -0.153063000   -0.202448121    0.179238816
 481   Q   :   -0.092571246    0.071079557   -0.265402428
 482   Q   :    0.226519473   -0.012931385   -0.025611287
 483   Q   :   -0.166253246   -0.002621109    0.210833081
 484   Q   :   -0.062383251    0.022649890   -0.191121641
 485   Q   :    0.111591087   -0.165094511   -0.174684875
 486   Q   :    0.029342581    0.016064836    0.254131605
 487   Q   :   -0.147535851    0.148481244   -0.083944494
 488   Q   :   -0.211366342   -0.161449003   -0.171291484
 489   Q   :    0.125868531    0.237829877   -0.135310192
 490   Q   :    0.080488472   -0.078779855    0.302692387
 491   Q   :   -0.129922767   -0.210749288   -0.053905462
 492   Q   :   -0.036804097    0.196287139    0.229104734
 493   Q   :    0.165523050    0.020664809   -0.183952133
 494   Q   :    0.064903421   -0.037216216   -0.264188475
 495   Q   :    0.124497560   -0.097799123    0.218838880
 496   Q   :   -0.193284216    0.128075700    0.052928892
 497   Q   :    0.215927654    0.085806382    0.134318356
 498   Q   :   -0.093247294   -0.252160392   -0.029602144
 499   Q   :   -0.119391290    0.165249303   -0.083960178
 500   Q   :    0.004062352    0.128973677   -0.266279181
 501   Q   :   -0.219621373   -0.199638517    0.045930493
 502   Q   :    0.211752119    0.064273927    0.223867238
 503   Q   :    0.124047488    0.224081518   -0.188643118
 504   Q   :    0.047018172    0.025326836    0.302661609
 505   Q   :   -0.164583607   -0.248836469   -0.113798933
 506   Q   :    0.112820409    0.191195158   -0.198039011
 507   Q   :   -0.278227882    0.034788581    0.153526024
 508   Q   :    0.162636524   -0.221295936    0.040077809
 509   Q   :   -0.184458283   -0.132219021   -0.221385144
 510   Q   :   -0.029007089   -0.012216344    0.278950289
 511   Q   :    0.211649447    0.144631173   -0.061179487
 512   Q   :    0.218800158   -0.015014323    0.175724890
 513   Q   :   -0.085396995    0.195042307   -0.162723421
 514   Q   :   -0.127573104   -0.181548116   -0.013834412
 515   Q   :    0.054295869    0.279293220    0.043055429
 516   Q   :   -0.150399809   -0.090411506   -0.175512139
 517   Q   :    0.103926665   -0.178726467    0.136192312
 518   Q   :    0.226768477   -0.189290504   -0.097230274
 519   Q   :   -0.048170576    0.217900054   -0.116752176
 520   Q   :   -0.165951435   -0.035397987    0.211096438
 521   Q   :    0.210083815    0.193759328    0.077375328
 522   Q   :    0.058997976   -0.286420036   -0.065278514
 523   Q   :   -0.268192135    0.085162381   -0.004647984
 524   Q   :    0.006721269    0.092588542    0.279799092
 525   Q   :   -0.136662200   -0.257996837   -0.103111510
 526   Q   :    0.127237084    0.171861219   -0.181807077
 527   Q   :   -0.177356928    0.154076569   -0.131075563
 528   Q   :   -0.021153647   -0.232288457    0.167768740
 529   Q   :    0.201327379    0.074873896   -0.027883886
 530   Q   :   -0.025151569   -0.254896648    0.057001246
 531   Q   :   -0.162383971    0.216904730    0.220238624
 532   Q   :    0.182953619    0.050309195   -0.287394737
 533   Q   :   -0.197358731   -0.229792218   -0.027953058
 534   Q   :    0.148496900    0.030804559    0.213474143
 535   Q   :    0.042904125    0.196922567   -0.195967784
 536   Q   :   -0.272457353    0.034103971    0.052968693
 537   Q   :    0.174908235   -0.146476026    0.135899905
 538   Q   :    0.103212784    0.115717148   -0.188227933
 539   Q   :    0.154039725    0.008526060    0.277686727
 540   Q   :    0.131820942    0.074467378   -0.263113672
 541   Q   :   -0.279354248   -0.086246479   -0.009877508
 542   Q   :   -0.010320012   -0.012089386    0.273282917
 543   Q   :   -0.176130330   -0.134963330   -0.182663956
 544   Q   :    0.195670316    0.145559414   -0.088748410
 545   Q   :   -0.098627726   -0.227857571   -0.150955947
 546   Q   :   -0.146747418    0.140464854    0.186444696
 547   Q   :    0.252522310    0.083423631   -0.037966522
 548   Q   :   -0.104069131    0.264224996   -0.084243431
 549   Q   :   -0.021736461   -0.119449763    0.224490185
 550   Q   :    0.135318248   -0.145837993   -0.144697032
 551   Q   :    0.250637433    0.037070929    0.104269867
 552   Q   :   -0.236015956   -0.121201822    0.153564348
 553   Q   :   -0.016857184    0.085805218   -0.249540600
 554   Q   :    0.140022935   -0.070486312   -0.253216923
 555   Q   :   -0.156402986    0.181211662    0.043481819
 556   Q   :    0.023603254   -0.106141286    0.209402832
 557   Q   :    0.220983650    0.150686977    0.063883374
 558   Q   :   -0.012367416   -0.264924984    0.057923204
 559   Q   :   -0.200504270    0.113030322   -0.131036843
 560   Q   :    0.195568001    0.078914424    0.153171704
 561   Q   :   -0.216884509    0.137097662   -0.066343690
 562   Q   :    0.026947408   -0.213902472   -0.083437224
 563   Q   :   -0.233231422    0.019837649    0.171654285
 564   Q   :    0.226503485   -0.117087388    0.053282993
 565   Q   :   -0.003811838    0.086496601   -0.235211019
 566   Q   :   -0.111829896   -0.146028262    0.191177362
 567   Q   :    0.160926269   -0.054074667   -0.187607303
 568   Q   :   -0.055261620    0.200709020    0.000124936
 569   Q   :    0.037385644   -0.044748304   -0.285162881
 570   Q   :    0.224243438   -0.017114643    0.207759506
 571   Q   :   -0.256492403    0.063217012    0.082769678
 572   Q   :   -0.110500017   -0.199486559    0.185330535
 573   Q   :    0.225455317    0.165758089    0.065524569
 574   Q   :   -0.109002454    0.043505828   -0.252762317
 575   Q   :   -0.021458375    0.270259305    0.066615185
 576   Q   :    0.268106742   -0.164778453    0.006253518
 577   Q   :   -0.252423267   -0.100737484   -0.074116224
 578   Q   :   -0.275534117    0.062739323   -0.062554514
 579   Q   :    0.137092720   -0.246360692   -0.094409577
 580   Q   :    0.144526368    0.180454331    0.151468036
 581   Q   :   -0.194266196   -0.183308047    0.161439967
 582   Q   :   -0.087314621    0.263198609   -0.073542180
 583   Q   :    0.277220957   -0.089079997   -0.095772785
 584   Q   :   -0.136903304   -0.231210635   -0.064914324
 585   Q   :   -0.128995197    0.242591347   -0.023486215
 586   Q   :    0.276726979   -0.005766979    0.076465896
 587   Q   :    0.205759429    0.157388678   -0.129139636
 588   Q   :    0.076453577   -0.225939217    0.184109015
 589   Q   :   -0.277981986    0.073419614   -0.041592557
 590   Q   :   -0.059366212   -0.279091831   -0.021885996
 591   Q   :   -0.185747997    0.226005283   -0.068234047
 592   Q   :    0.241250386    0.049123228    0.088331725
 593   Q   :   -0.156549172   -0.244161687   -0.039799986
 594   Q   :    0.241337669    0.022232400   -0.059161783
 595   Q   :   -0.087500100    0.212864548    0.103393476
 596   Q   :    0.041872993   -0.280509839    0.060746192
 597   Q   :   -0.297254661    0.122135573   -0.046720016
 598   Q   :    0.255496731    0.157172038   -0.005732161
 599   Q   :    0.054743615    0.098964414    0.238567416
 600   Q   :   -0.072346437   -0.286852513   -0.045531729
 601   Q   :    0.004625910    0.176210827   -0.187276803
 602   Q   :   -0.096463238    0.012904148   -0.252849941
 603   Q   :    0.048196185   -0.245225635    0.129609545
 604   Q   :    0.050121678    0.221555657    0.134862801
 605   Q   :   -0.124941203   -0.060014924    0.251786587
 606   Q   :    0.285305030    0.034699994   -0.058655298
 607   Q   :   -0.156726590    0.021215597   -0.182698899
 608   Q   :    0.025447961   -0.230570694   -0.170554407
 609   Q   :    0.101161230   -0.000362563    0.290575142
 610   Q   :   -0.135973117    0.231402682   -0.125685074
 611   Q   :   -0.043881493    0.011741625    0.288975697
 612   Q   :    0.149876993   -0.200022171   -0.121325145
 613   Q   :   -0.106678884    0.190601571   -0.163910931
 614   Q   :   -0.168694708   -0.011876053    0.244142192
 615   Q   :   -0.101409511    0.173287499   -0.244670317
 616   Q   :    0.259797274   -0.160088770   -0.000653498
 617   Q   :    0.154513904   -0.226483931   -0.069045480
 618   Q   :    0.031896165    0.145506026    0.231010661
 619   Q   :   -0.186755848    0.080266853   -0.159231863
 620   Q   :   -0.277390522    0.026640619    0.115589569
 621   Q   :    0.178929253   -0.252923295    0.031505707
 622   Q   :    0.098983882    0.222998029   -0.152339244
 623   Q   :    0.082421130    0.274535041    0.102922812
 624   Q   :    0.222276478   -0.236023637   -0.032183777
 625   Q   :   -0.298851153   -0.045810098   -0.064132097
 626   Q   :   -0.159739064   -0.228835678    0.090446910
 627   Q   :   -0.062148818    0.293547208    0.095935386
 628   Q   :    0.212605563   -0.065309023   -0.187156185
 629   Q   :    0.172563561    0.159049244    0.125926414
 630   Q   :    0.059621933   -0.208764560   -0.196681418
 631   Q   :   -0.222568410    0.042363974    0.066146025
 632   Q   :   -0.240231336   -0.143693982    0.113421783
 633   Q   :    0.144921772    0.203784373    0.150843342
 634   Q   :    0.096687638   -0.054200242   -0.261987004
 635   Q   :    0.256264680   -0.109269740    0.150695088
 636   Q   :    0.031089188    0.181794328   -0.241740146
 637   Q   :   -0.287719235   -0.069763615    0.087679813

Difference to translation invariance:
           :   -0.0000684238   -0.0000126680    0.0001825540

Difference to rotation invariance:
           :    0.0008322584   -0.0031374100    0.0010812621

Norm of the cartesian gradient     ...    6.3959784713
RMS gradient                       ...    0.1463108892
MAX gradient                       ...    0.3291270555

-------
TIMINGS
-------

Total SCF gradient time            ...      187.689 sec

One electron gradient       ....      25.535 sec  ( 13.6%)
RI-J Coulomb gradient       ....      10.046 sec  (  5.4%)
COSX gradient               ....     114.703 sec  ( 61.1%)
XC gradient                 ....      15.484 sec  (  8.2%)

Maximum memory used throughout the entire SCFGRAD-calculation: 753.8 MB

                            ***************************************
                            *     ORCA property calculations      *
                            ***************************************

                                    ---------------------
                                    Active property flags
                                    ---------------------
   (+) Dipole Moment


------------------------------------------------------------------------------
                       ORCA ELECTRIC PROPERTIES CALCULATION
------------------------------------------------------------------------------

Dipole Moment Calculation                       ... on
Quadrupole Moment Calculation                   ... off
Polarizability Calculation                      ... off
GBWName                                         ... final024.orca.gbw
Electron density                                ... final024.orca.scfp
The origin for moment calculation is the CENTER OF MASS  = (22.060607, 21.505764 20.476714)

-------------
DIPOLE MOMENT
-------------
                                X             Y             Z
Electronic contribution:      0.05731       0.34538      -1.14214
Nuclear contribution   :      1.14200     -20.09282       8.16296
                        -----------------------------------------
Total Dipole Moment    :      1.19930     -19.74743       7.02083
                        -----------------------------------------
Magnitude (a.u.)       :     20.99265
Magnitude (Debye)      :     53.35908



--------------------
Rotational spectrum 
--------------------
 
Rotational constants in cm-1:     0.002065     0.001363     0.001192 
Rotational constants in MHz :    61.903784    40.856486    35.741500 

 Dipole components along the rotational axes: 
x,y,z [a.u.] :    16.591491    -9.934497    -8.168211 
x,y,z [Debye]:    42.172220   -25.251485   -20.761942 

 

Timings for individual modules:

Sum of individual times         ...      765.263 sec (=  12.754 min)
GTO integral calculation        ...       12.717 sec (=   0.212 min)   1.7 %
SCF iterations                  ...      560.435 sec (=   9.341 min)  73.2 %
SCF Gradient evaluation         ...      192.112 sec (=   3.202 min)  25.1 %
                             ****ORCA TERMINATED NORMALLY****
TOTAL RUN TIME: 0 days 0 hours 12 minutes 52 seconds 872 msec
