
                                 *****************
                                 * O   R   C   A *
                                 *****************

                                            #,                                       
                                            ###                                      
                                            ####                                     
                                            #####                                    
                                            ######                                   
                                           ########,                                 
                                     ,,################,,,,,                         
                               ,,#################################,,                 
                          ,,##########################################,,             
                       ,#########################################, ''#####,          
                    ,#############################################,,   '####,        
                  ,##################################################,,,,####,       
                ,###########''''           ''''###############################       
              ,#####''   ,,,,##########,,,,          '''####'''          '####       
            ,##' ,,,,###########################,,,                        '##       
           ' ,,###''''                  '''############,,,                           
         ,,##''                                '''############,,,,        ,,,,,,###''
      ,#''                                            '''#######################'''  
     '                                                          ''''####''''         
             ,#######,   #######,   ,#######,      ##                                
            ,#'     '#,  ##    ##  ,#'     '#,    #''#        ######   ,####,        
            ##       ##  ##   ,#'  ##            #'  '#       #        #'  '#        
            ##       ##  #######   ##           ,######,      #####,   #    #        
            '#,     ,#'  ##    ##  '#,     ,#' ,#      #,         ##   #,  ,#        
             '#######'   ##     ##  '#######'  #'      '#     #####' # '####'        



                  #######################################################
                  #                        -***-                        #
                  #          Department of theory and spectroscopy      #
                  #    Directorship and core code : Frank Neese         #
                  #        Max Planck Institute fuer Kohlenforschung    #
                  #                Kaiser Wilhelm Platz 1               #
                  #                 D-45470 Muelheim/Ruhr               #
                  #                      Germany                        #
                  #                                                     #
                  #                  All rights reserved                #
                  #                        -***-                        #
                  #######################################################


                         Program Version 5.0.3 -  RELEASE  -


 With contributions from (in alphabetic order):
   Daniel Aravena         : Magnetic Suceptibility
   Michael Atanasov       : Ab Initio Ligand Field Theory (pilot matlab implementation)
   Alexander A. Auer      : GIAO ZORA, VPT2 properties, NMR spectrum
   Ute Becker             : Parallelization
   Giovanni Bistoni       : ED, misc. LED, open-shell LED, HFLD
   Martin Brehm           : Molecular dynamics
   Dmytro Bykov           : SCF Hessian
   Vijay G. Chilkuri      : MRCI spin determinant printing, contributions to CSF-ICE
   Dipayan Datta          : RHF DLPNO-CCSD density
   Achintya Kumar Dutta   : EOM-CC, STEOM-CC
   Dmitry Ganyushin       : Spin-Orbit,Spin-Spin,Magnetic field MRCI
   Miquel Garcia          : C-PCM and meta-GGA Hessian, CC/C-PCM, Gaussian charge scheme
   Yang Guo               : DLPNO-NEVPT2, F12-NEVPT2, CIM, IAO-localization
   Andreas Hansen         : Spin unrestricted coupled pair/coupled cluster methods
   Benjamin Helmich-Paris : MC-RPA, TRAH-SCF, COSX integrals
   Lee Huntington         : MR-EOM, pCC
   Robert Izsak           : Overlap fitted RIJCOSX, COSX-SCS-MP3, EOM
   Marcus Kettner         : VPT2
   Christian Kollmar      : KDIIS, OOCD, Brueckner-CCSD(T), CCSD density, CASPT2, CASPT2-K
   Simone Kossmann        : Meta GGA functionals, TD-DFT gradient, OOMP2, MP2 Hessian
   Martin Krupicka        : Initial AUTO-CI
   Lucas Lang             : DCDCAS
   Marvin Lechner         : AUTO-CI (C++ implementation), FIC-MRCC
   Dagmar Lenk            : GEPOL surface, SMD
   Dimitrios Liakos       : Extrapolation schemes; Compound Job, initial MDCI parallelization
   Dimitrios Manganas     : Further ROCIS development; embedding schemes
   Dimitrios Pantazis     : SARC Basis sets
   Anastasios Papadopoulos: AUTO-CI, single reference methods and gradients
   Taras Petrenko         : DFT Hessian,TD-DFT gradient, ASA, ECA, R-Raman, ABS, FL, XAS/XES, NRVS
   Peter Pinski           : DLPNO-MP2, DLPNO-MP2 Gradient
   Christoph Reimann      : Effective Core Potentials
   Marius Retegan         : Local ZFS, SOC
   Christoph Riplinger    : Optimizer, TS searches, QM/MM, DLPNO-CCSD(T), (RO)-DLPNO pert. Triples
   Tobias Risthaus        : Range-separated hybrids, TD-DFT gradient, RPA, STAB
   Michael Roemelt        : Original ROCIS implementation
   Masaaki Saitow         : Open-shell DLPNO-CCSD energy and density
   Barbara Sandhoefer     : DKH picture change effects
   Avijit Sen             : IP-ROCIS
   Kantharuban Sivalingam : CASSCF convergence, NEVPT2, FIC-MRCI
   Bernardo de Souza      : ESD, SOC TD-DFT
   Georgi Stoychev        : AutoAux, RI-MP2 NMR, DLPNO-MP2 response
   Willem Van den Heuvel  : Paramagnetic NMR
   Boris Wezisla          : Elementary symmetry handling
   Frank Wennmohs         : Technical directorship


 We gratefully acknowledge several colleagues who have allowed us to
 interface, adapt or use parts of their codes:
   Stefan Grimme, W. Hujo, H. Kruse, P. Pracht,  : VdW corrections, initial TS optimization,
                  C. Bannwarth, S. Ehlert          DFT functionals, gCP, sTDA/sTD-DF
   Ed Valeev, F. Pavosevic, A. Kumar             : LibInt (2-el integral package), F12 methods
   Garnet Chan, S. Sharma, J. Yang, R. Olivares  : DMRG
   Ulf Ekstrom                                   : XCFun DFT Library
   Mihaly Kallay                                 : mrcc  (arbitrary order and MRCC methods)
   Jiri Pittner, Ondrej Demel                    : Mk-CCSD
   Frank Weinhold                                : gennbo (NPA and NBO analysis)
   Christopher J. Cramer and Donald G. Truhlar   : smd solvation model
   Lars Goerigk                                  : TD-DFT with DH, B97 family of functionals
   V. Asgeirsson, H. Jonsson                     : NEB implementation
   FAccTs GmbH                                   : IRC, NEB, NEB-TS, DLPNO-Multilevel, CI-OPT
                                                   MM, QMMM, 2- and 3-layer-ONIOM, Crystal-QMMM,
                                                   LR-CPCM, SF, NACMEs, symmetry and pop. for TD-DFT,
                                                   nearIR, NL-DFT gradient (VV10), updates on ESD,
                                                   ML-optimized integration grids
   S Lehtola, MJT Oliveira, MAL Marques          : LibXC Library
   Liviu Ungur et al                             : ANISO software


 Your calculation uses the libint2 library for the computation of 2-el integrals
 For citations please refer to: http://libint.valeyev.net

 Your ORCA version has been built with support for libXC version: 5.1.0
 For citations please refer to: https://tddft.org/programs/libxc/

 This ORCA versions uses:
   CBLAS   interface :  Fast vector & matrix operations
   LAPACKE interface :  Fast linear algebra routines
   SCALAPACK package :  Parallel linear algebra routines
   Shared memory     :  Shared parallel matrices
   BLAS/LAPACK       :  OpenBLAS 0.3.15  USE64BITINT DYNAMIC_ARCH NO_AFFINITY SkylakeX SINGLE_THREADED
        Core in use  :  SkylakeX
   Copyright (c) 2011-2014, The OpenBLAS Project


================================================================================

----- Orbital basis set information -----
Your calculation utilizes the basis: def2-SVP
   F. Weigend and R. Ahlrichs, Phys. Chem. Chem. Phys. 7, 3297 (2005).

The basis set includes element-specific modifications.

Your calculation utilizes the basis: aug-cc-pVTZ 
    H, B-Ne : Obtained from the ccRepo (grant-hill.group.shef.ac.uk/ccrepo) Feb. 2017
              R. A. Kendall, T. H. Dunning, Jr., R. J. Harrison, J. Chem. Phys. 96, 6796 (1992)
         He : Obtained from the ccRepo (grant-hill.group.shef.ac.uk/ccrepo) Feb. 2017
              D. E. Woon, T. H. Dunning, Jr., J. Chem. Phys. 100, 2975 (1994)
  Li-Be, Na : Obtained from the ccRepo (grant-hill.group.shef.ac.uk/ccrepo) Feb. 2017
              B. P. Prascher, D. E. Woon, K. A. Peterson, T. H. Dunning, Jr., A. K. Wilson, Theor. Chem. Acc. 128, 69 (2011)
         Mg : Obtained from the Peterson Research Group Website (tyr0.chem.wsu.edu/~kipeters) Feb. 2017
              B. P. Prascher, D. E. Woon, K. A. Peterson, T. H. Dunning, Jr., A. K. Wilson, Theor. Chem. Acc. 128, 69 (2011)
      Al-Ar : Obtained from the ccRepo (grant-hill.group.shef.ac.uk/ccrepo) Feb. 2017
              D. E. Woon, T. H. Dunning, Jr., J. Chem. Phys. 98, 1358 (1993)
      Sc-Zn : Obtained from the ccRepo (grant-hill.group.shef.ac.uk/ccrepo) Feb. 2017
              N. B. Balabanov, K. A. Peterson, J. Chem. Phys. 123, 064107 (2005)
              N. B. Balabanov, K. A. Peterson, J. Chem. Phys. 125, 074110 (2006)
      Ga-Kr : Obtained from the ccRepo (grant-hill.group.shef.ac.uk/ccrepo) Feb. 2017
              A. K. Wilson, D. E. Woon, K. A. Peterson, T. H. Dunning, Jr., J. Chem. Phys. 110, 7667 (1999)
     Ag, Au : Obtained from the Peterson Research Group Website (tyr0.chem.wsu.edu/~kipeters) Feb. 2017
              K. A. Peterson, C. Puzzarini, Theor. Chem. Acc. 114, 283 (2005)

Your calculation utilizes the basis: cc-pVTZ 
       H, B-Ne : Obtained from the ccRepo (grant-hill.group.shef.ac.uk/ccrepo) Feb. 2017
                 T. H. Dunning, Jr., J. Chem. Phys. 90, 1007 (1989)
            He : Obtained from the ccRepo (grant-hill.group.shef.ac.uk/ccrepo) Feb. 2017
                 D. E. Woon, T. H. Dunning, Jr., J. Chem. Phys. 100, 2975 (1994)
  Li-Be, Na-Mg : Obtained from the ccRepo (grant-hill.group.shef.ac.uk/ccrepo) Feb. 2017
                 B. P. Prascher, D. E. Woon, K. A. Peterson, T. H. Dunning, Jr., A. K. Wilson, Theor. Chem. Acc. 128, 69 (2011)
         Al-Ar : Obtained from the ccRepo (grant-hill.group.shef.ac.uk/ccrepo) Feb. 2017
                 D. E. Woon, T. H. Dunning, Jr., J. Chem. Phys. 98, 1358 (1993)
            Ca : Obtained from the Peterson Research Group Website (tyr0.chem.wsu.edu/~kipeters) Feb. 2017
                 J. Koput, K. A. Peterson, J. Phys. Chem. 106, 9595 (2002)
         Sc-Zn : Obtained from the ccRepo (grant-hill.group.shef.ac.uk/ccrepo) Feb. 2017
                 N. B. Balabanov, K. A. Peterson, J. Chem. Phys. 123, 064107 (2005)
                 N. B. Balabanov, K. A. Peterson, J. Chem. Phys. 125, 074110 (2006)
         Ga-Kr : Obtained from the ccRepo (grant-hill.group.shef.ac.uk/ccrepo) Feb. 2017
                 A. K. Wilson, D. E. Woon, K. A. Peterson, T. H. Dunning, Jr., J. Chem. Phys. 110, 7667 (1999)
             Y : Obtained from the ccRepo (grant-hill.group.shef.ac.uk/ccrepo) Feb. 2017
                 K. A. Peterson, D. Figgen, M. Dolg, H. Stoll, J. Chem. Phys. 126, 124101 (2007)
        Ag, Au : Obtained from the Peterson Research Group Website (tyr0.chem.wsu.edu/~kipeters) Feb. 2017
                 K. A. Peterson, C. Puzzarini, Theor. Chem. Acc. 114, 283 (2005)

----- AuxJ basis set information -----
Your calculation utilizes the auxiliary basis: def2/J
   F. Weigend, Phys. Chem. Chem. Phys. 8, 1057 (2006).

================================================================================
                                        WARNINGS
                       Please study these warnings very carefully!
================================================================================

WARNING: The globally-selected AuxJ basis set is optimized for use with ECPs
         Make sure a suitable alternative is explicitly given all heavy elements (Z>36)

INFO   : the flag for use of the SHARK integral package has been found!

================================================================================
                                       INPUT FILE
================================================================================
NAME = final037.orca.inp
|  1> ! NoMOPrint PrintBasis #MINIPRINT SMALLPRINT LARGEPRINT
|  2> ! ALLPOP XYZFILE
|  3> #! BP86 3-21G   TightSCF
|  4> ! ENGRAD
|  5> ! B3LYP NormalPNO PModel #DecontractAux
|  6> #! VerySlowConv 
|  7>  %maxcore 5000
|  8>  %scf  maxiter   500  end 
|  9> 
| 10> %pal
| 11>     nprocs 32
| 12> end
| 13> 
| 14> %basis
| 15>     NewGTO O    # New basis for oxygen
| 16>         "aug-cc-pVTZ"
| 17>     end
| 18>     NewGTO C    # New basis for carbon
| 19>         "aug-cc-pVTZ"
| 20>     end
| 21>     NewGTO H    # New basis for hydrogen
| 22>         "cc-pVTZ"
| 23>     end
| 24> end
| 25> 
| 26> * xyz 0   1
| 27>   C  10.25  11.41  12.65  #1
| 28>   H  9.48  11.64  11.94  #2
| 29>   H  10.69  12.38  12.87  #3
| 30>   C  11.21  10.24  12.09  #4
| 31>   H  12.05  9.99  12.78  #5
| 32>   H  10.64  9.26  12.13  #6
| 33>   C  11.78  10.52  10.75  #7
| 34>   H  12.38  9.72  10.35  #8
| 35>   H  12.5  11.37  10.89  #9
| 36>   C  10.86  10.92  9.72  #10
| 37>   H  10.24  11.76  9.88  #11
| 38>   H  10.21  10.12  9.39  #12
| 39>   O  11.58  11.18  8.47  #13
| 40>   H  10.9  11.25  7.81  #14
| 41>   O  9.52  11.02  13.82  #15
| 42>   H  9.14  10.15  13.73  #16
| 43>   O  7.86  11.85  10.21  #17
| 44>   H  7.23  11.14  10.28  #18
| 45>   H  7.59  12.64  10.71  #19
| 46>   O  11.39  10.29  15.94  #20
| 47>   H  11.12  9.45  16.32  #21
| 48>   H  10.93  10.41  15.1  #22
| 49>   O  13.89  12.72  9.2  #23
| 50>   H  13.01  12.31  9.23  #24
| 51>   H  14.28  12.83  10.05  #25
| 52>   O  11.53  14.77  11.79  #26
| 53>   H  11.12  14.85  10.88  #27
| 54>   H  10.81  14.74  12.48  #28
| 55>   O  9.72  11.07  6.23  #29
| 56>   H  10.48  11.53  5.88  #30
| 57>   H  9.09  11.76  6.47  #31
| 58>   O  8.5  13.1  7.59  #32
| 59>   H  8.21  12.62  8.42  #33
| 60>   H  9.23  13.54  8.03  #34
| 61>   O  9.54  7.52  9.72  #35
| 62>   H  8.87  7.99  9.12  #36
| 63>   H  9.06  7.42  10.57  #37
| 64>   O  11.4  12.5  17.55  #38
| 65>   H  12.04  13.24  17.48  #39
| 66>   H  11.31  11.91  16.78  #40
| 67>   O  10.46  7.99  17.12  #41
| 68>   H  9.73  8.34  17.63  #42
| 69>   H  11.34  7.92  17.57  #43
| 70>   O  13.35  16.71  11.93  #44
| 71>   H  13.64  17.12  12.74  #45
| 72>   H  12.51  16.22  12.03  #46
| 73>   O  11.9  7.39  8.47  #47
| 74>   H  11.08  7.57  8.93  #48
| 75>   H  12.3  8.26  8.43  #49
| 76>   O  13.71  9.45  7.82  #50
| 77>   H  14.2  9.55  8.64  #51
| 78>   H  13.05  10.15  7.9  #52
| 79>   O  6.07  9.19  10.11  #53
| 80>   H  5.36  9.8  10.01  #54
| 81>   H  6.32  9.06  9.17  #55
| 82>   O  7.27  9.22  14.57  #56
| 83>   H  7.2  8.95  13.65  #57
| 84>   H  7.74  8.48  15.01  #58
| 85>   O  7.92  10.83  16.69  #59
| 86>   H  7.61  10.41  15.92  #60
| 87>   H  8.06  10.16  17.39  #61
| 88>   O  13.46  13.03  14.14  #62
| 89>   H  13.78  13.25  13.26  #63
| 90>   H  12.85  13.8  14.25  #64
| 91>   O  14.31  13.67  11.57  #65
| 92>   H  15.2  13.76  11.83  #66
| 93>   H  13.91  14.62  11.66  #67
| 94>   O  11.93  12.29  5.16  #68
| 95>   H  12.73  11.92  5.53  #69
| 96>   H  11.92  12.08  4.21  #70
| 97>   O  11.76  6.83  11.55  #71
| 98>   H  11.28  7.38  10.95  #72
| 99>   H  12.09  6.1  11.01  #73
|100>   O  9.53  14.68  13.56  #74
|101>   H  9.37  14.21  14.39  #75
|102>   H  8.87  15.31  13.61  #76
|103>   O  14.49  14.64  7.61  #77
|104>   H  13.76  15.26  7.58  #78
|105>   H  14.27  14.03  8.31  #79
|106>   O  7.85  9.4  7.53  #80
|107>   H  8.59  9.78  7.05  #81
|108>   H  7.89  8.49  7.29  #82
|109>   O  7.38  12.09  4.27  #83
|110>   H  8.15  11.58  4.42  #84
|111>   H  6.62  11.74  4.75  #85
|112>   O  6.94  14.58  10.74  #86
|113>   H  7.19  15.01  11.55  #87
|114>   H  6.04  14.25  10.79  #88
|115>   O  7.29  12.7  14.07  #89
|116>   H  7.52  13.37  13.4  #90
|117>   H  8.02  12.08  14.03  #91
|118>   O  13.76  10.03  14.65  #92
|119>   H  13.18  9.79  15.43  #93
|120>   H  13.44  10.91  14.45  #94
|121>   O  10.36  15.11  8.84  #95
|122>   H  10.97  15.45  8.2  #96
|123>   H  9.58  15.68  8.8  #97
|124>   Q  0.6645  5.02$  5.24$  10.69$
|125>   Q  0.6645  4.39$  5.48$  9.3$
|126>   Q  -1.3290  4.57$  5.67$  10.08$
|127>   Q  0.6645  0.97$  7.84$  16.75$
|128>   Q  0.6645  1.4$  9.18$  16.13$
|129>   Q  -1.3290  0.95$  8.7$  16.62$
|130>   Q  0.6645  5.53$  6.27$  5.31$
|131>   Q  0.6645  5.21$  6.99$  6.61$
|132>   Q  -1.3290  5.49$  6.36$  6.13$
|133>   Q  0.6645  13.27$  6.67$  1.46$
|134>   Q  0.6645  13.72$  5.51$  2.41$
|135>   Q  -1.3290  13.29$  6.19$  2.19$
|136>   Q  0.6645  19.06$  6.36$  7.06$
|137>   Q  0.6645  19.77$  6.19$  8.51$
|138>   Q  -1.3290  19.57$  6.53$  7.74$
|139>   Q  0.6645  11.88$  21.31$  14.19$
|140>   Q  0.6645  11.03$  20.19$  14.64$
|141>   Q  -1.3290  11.66$  20.51$  14.24$
|142>   Q  0.6645  4.13$  6.29$  3.84$
|143>   Q  0.6645  5.2$  6.05$  2.77$
|144>   Q  -1.3290  4.88$  6.44$  3.42$
|145>   Q  0.6645  0.27$  11.07$  10.15$
|146>   Q  0.6645  1.84$  11.35$  9.98$
|147>   Q  -1.3290  1.12$  10.93$  10.04$
|148>   Q  0.6645  15.87$  5.49$  19.09$
|149>   Q  0.6645  15.02$  5.12$  17.87$
|150>   Q  -1.3290  15.49$  4.93$  18.53$
|151>   Q  0.6645  5.4$  9.84$  3.99$
|152>   Q  0.6645  5.59$  8.43$  3.35$
|153>   Q  -1.3290  5.68$  9.28$  3.41$
|154>   Q  0.6645  7.04$  8.43$  11.48$
|155>   Q  0.6645  7.22$  7.17$  12.24$
|156>   Q  -1.3290  7.47$  7.9$  11.95$
|157>   Q  0.6645  10.82$  15.59$  15.22$
|158>   Q  0.6645  12.11$  15.28$  16.11$
|159>   Q  -1.3290  11.63$  15.39$  15.39$
|160>   Q  0.6645  5.96$  16.88$  15.71$
|161>   Q  0.6645  5.91$  15.5$  16.25$
|162>   Q  -1.3290  5.98$  16.31$  16.32$
|163>   Q  0.6645  9.94$  1.32$  10.43$
|164>   Q  0.6645  9.96$  1.8$  9.09$
|165>   Q  -1.3290  10.3$  1.67$  9.81$
|166>   Q  0.6645  4.67$  4.55$  7.18$
|167>   Q  0.6645  5.52$  3.58$  7.93$
|168>   Q  -1.3290  4.82$  3.99$  7.8$
|169>   Q  0.6645  18.22$  8.76$  13.73$
|170>   Q  0.6645  19.37$  7.79$  14.29$
|171>   Q  -1.3290  18.56$  8.05$  14.11$
|172>   Q  0.6645  6.33$  2.88$  10.97$
|173>   Q  0.6645  7.57$  2.88$  11.74$
|174>   Q  -1.3290  7.11$  2.64$  11.1$
|175>   Q  0.6645  13.95$  8.89$  6.28$
|176>   Q  0.6645  13.32$  8.85$  4.92$
|177>   Q  -1.3290  13.95$  8.74$  5.44$
|178>   Q  0.6645  13.12$  15.23$  18.13$
|179>   Q  0.6645  14$  14.27$  17.26$
|180>   Q  -1.3290  13.31$  14.71$  17.5$
|181>   Q  0.6645  15.19$  4.55$  3.95$
|182>   Q  0.6645  15.57$  4.31$  2.56$
|183>   Q  -1.3290  15.25$  4.11$  3.27$
|184>   Q  0.6645  10.62$  10.83$  20.2$
|185>   Q  0.6645  10.9$  11.98$  19.3$
|186>   Q  -1.3290  10.78$  11.61$  20.04$
|187>   Q  0.6645  9$  1.96$  15.73$
|188>   Q  0.6645  7.6$  1.37$  15.31$
|189>   Q  -1.3290  8.44$  1.5$  15.24$
|190>   Q  0.6645  14.62$  10.47$  0.91$
|191>   Q  0.6645  14.83$  10$  2.3$
|192>   Q  -1.3290  14.52$  9.95$  1.53$
|193>   Q  0.6645  10.92$  14.23$  0.91$
|194>   Q  0.6645  10.08$  13.26$  0.06$
|195>   Q  -1.3290  10.23$  13.96$  0.49$
|196>   Q  0.6645  16.69$  17.45$  14.54$
|197>   Q  0.6645  18.03$  16.66$  14.74$
|198>   Q  -1.3290  17.32$  17.05$  14.96$
|199>   Q  0.6645  4.28$  4.67$  16.03$
|200>   Q  0.6645  3.71$  3.5$  16.64$
|201>   Q  -1.3290  4.3$  4.07$  16.6$
|202>   Q  0.6645  6.28$  15.81$  13.59$
|203>   Q  0.6645  7.18$  16.98$  13.48$
|204>   Q  -1.3290  7.03$  16.16$  13.55$
|205>   Q  0.6645  20.14$  16.94$  10.88$
|206>   Q  0.6645  20.87$  15.81$  10.67$
|207>   Q  -1.3290  20.24$  16.17$  10.93$
|208>   Q  0.6645  10.37$  7.37$  4.73$
|209>   Q  0.6645  9.3$  6.55$  5.41$
|210>   Q  -1.3290  9.74$  6.81$  4.76$
|211>   Q  0.6645  17.02$  10.6$  7.46$
|212>   Q  0.6645  15.75$  11.46$  7.66$
|213>   Q  -1.3290  16.54$  11.32$  7.46$
|214>   Q  0.6645  7.83$  15.42$  5.83$
|215>   Q  0.6645  7.58$  14.64$  7.12$
|216>   Q  -1.3290  7.39$  15.21$  6.51$
|217>   Q  0.6645  17.59$  11.91$  5.84$
|218>   Q  0.6645  18.98$  11.27$  5.33$
|219>   Q  -1.3290  18.21$  11.68$  5.26$
|220>   Q  0.6645  5.59$  7.04$  0.81$
|221>   Q  0.6645  7.14$  7.46$  1.08$
|222>   Q  -1.3290  6.41$  7.31$  0.61$
|223>   Q  0.6645  12.51$  1.9$  9.19$
|224>   Q  0.6645  13.73$  2.13$  8.23$
|225>   Q  -1.3290  13.28$  1.76$  8.84$
|226>   Q  0.6645  3.86$  13.13$  15.45$
|227>   Q  0.6645  3.7$  11.74$  14.76$
|228>   Q  -1.3290  3.49$  12.55$  14.9$
|229>   Q  0.6645  8.85$  15.73$  0.78$
|230>   Q  0.6645  8.97$  17.31$  0.87$
|231>   Q  -1.3290  8.59$  16.54$  0.84$
|232>   Q  0.6645  16$  12.19$  2.12$
|233>   Q  0.6645  16.77$  12.52$  0.85$
|234>   Q  -1.3290  16.43$  12$  1.43$
|235>   Q  0.6645  11.51$  4.71$  19.25$
|236>   Q  0.6645  11.35$  5.42$  17.89$
|237>   Q  -1.3290  11.15$  5.2$  18.67$
|238>   Q  0.6645  15.8$  8.23$  1.46$
|239>   Q  0.6645  17.19$  7.37$  1.61$
|240>   Q  -1.3290  16.34$  7.55$  1.59$
|241>   Q  0.6645  15.73$  15.74$  8.81$
|242>   Q  0.6645  16.51$  15.99$  10.08$
|243>   Q  -1.3290  16.2$  16.21$  9.32$
|244>   Q  0.6645  7.59$  16.67$  7.79$
|245>   Q  0.6645  8.55$  17.75$  8.5$
|246>   Q  -1.3290  8.05$  17.03$  8.41$
|247>   Q  0.6645  15.67$  6.94$  3.4$
|248>   Q  0.6645  15.42$  7.3$  5.01$
|249>   Q  -1.3290  15.75$  6.85$  4.28$
|250>   Q  0.6645  3.75$  11.05$  8.44$
|251>   Q  0.6645  4.34$  12.15$  9.56$
|252>   Q  -1.3290  4.23$  11.37$  9.14$
|253>   Q  0.6645  4.3$  14.73$  9.66$
|254>   Q  0.6645  3.2$  13.88$  10.29$
|255>   Q  -1.3290  3.98$  14.17$  10.23$
|256>   Q  0.6645  16.25$  11.64$  12.78$
|257>   Q  0.6645  16.5$  11.33$  11.31$
|258>   Q  -1.3290  16.56$  11.78$  12$
|259>   Q  0.6645  3$  8.16$  18.43$
|260>   Q  0.6645  2.69$  6.62$  18.16$
|261>   Q  -1.3290  3.1$  7.3$  18.5$
|262>   Q  0.6645  18.81$  8.4$  7.92$
|263>   Q  0.6645  18.76$  9.44$  8.91$
|264>   Q  -1.3290  18.64$  9.14$  8.14$
|265>   Q  0.6645  12.29$  11.51$  1.89$
|266>   Q  0.6645  10.63$  11.39$  2.03$
|267>   Q  -1.3290  11.49$  11.36$  2.28$
|268>   Q  0.6645  16.04$  15.25$  17.73$
|269>   Q  0.6645  17$  14.15$  17.05$
|270>   Q  -1.3290  16.28$  14.47$  17.44$
|271>   Q  0.6645  15.53$  8.61$  11.07$
|272>   Q  0.6645  15.92$  8.24$  9.71$
|273>   Q  -1.3290  15.58$  8.75$  10.27$
|274>   Q  0.6645  11.56$  14.1$  5$
|275>   Q  0.6645  12.28$  15.4$  4.61$
|276>   Q  -1.3290  11.62$  14.95$  4.89$
|277>   Q  0.6645  15.7$  6.74$  21.5$
|278>   Q  0.6645  14.69$  6.91$  20.48$
|279>   Q  -1.3290  15.44$  6.74$  20.72$
|280>   Q  0.6645  17.22$  5.16$  6.23$
|281>   Q  0.6645  16.6$  5.17$  7.61$
|282>   Q  -1.3290  16.7$  4.85$  6.85$
|283>   Q  0.6645  7.01$  16.99$  18.32$
|284>   Q  0.6645  6.73$  17.36$  19.83$
|285>   Q  -1.3290  7.21$  17.28$  19.11$
|286>   Q  0.6645  18.28$  15.46$  11.39$
|287>   Q  0.6645  17.43$  14.22$  11.25$
|288>   Q  -1.3290  17.61$  14.99$  11.49$
|289>   Q  0.6645  13.32$  19.19$  9.86$
|290>   Q  0.6645  13.2$  17.86$  10.66$
|291>   Q  -1.3290  13.03$  18.4$  10.03$
|292>   Q  0.6645  16.78$  1.75$  10.61$
|293>   Q  0.6645  16$  1.09$  9.45$
|294>   Q  -1.3290  16.26$  1.73$  9.95$
|295>   Q  0.6645  2.03$  4.74$  11.89$
|296>   Q  0.6645  2.88$  5.68$  11.01$
|297>   Q  -1.3290  2.16$  5.4$  11.35$
|298>   Q  0.6645  21.05$  10.17$  6.36$
|299>   Q  0.6645  19.6$  10.31$  6.98$
|300>   Q  -1.3290  20.3$  10.58$  6.57$
|301>   Q  0.6645  3.7$  17.63$  15.39$
|302>   Q  0.6645  2.37$  17.01$  15.66$
|303>   Q  -1.3290  3.08$  17.16$  15.18$
|304>   Q  0.6645  12.02$  4.3$  15.88$
|305>   Q  0.6645  12.11$  5.41$  14.88$
|306>   Q  -1.3290  12.09$  5.11$  15.68$
|307>   Q  0.6645  12.66$  17.16$  6.76$
|308>   Q  0.6645  12.87$  17.29$  8.26$
|309>   Q  -1.3290  12.67$  16.9$  7.56$
|310>   Q  0.6645  19.25$  9.41$  15.74$
|311>   Q  0.6645  20.73$  9.93$  16.14$
|312>   Q  -1.3290  20.02$  9.81$  15.62$
|313>   Q  0.6645  15.73$  11.13$  15.44$
|314>   Q  0.6645  17.18$  11.02$  15.65$
|315>   Q  -1.3290  16.53$  11.25$  15.21$
|316>   Q  0.6645  4.72$  9.16$  16.79$
|317>   Q  0.6645  5.65$  9.07$  15.61$
|318>   Q  -1.3290  5.06$  8.8$  16.12$
|319>   Q  0.6645  1.59$  12.77$  15.97$
|320>   Q  0.6645  0.47$  12.95$  17.05$
|321>   Q  -1.3290  1$  13.17$  16.4$
|322>   Q  0.6645  5$  17.94$  13.41$
|323>   Q  0.6645  6.19$  18.72$  13.31$
|324>   Q  -1.3290  5.62$  18.37$  13.78$
|325>   Q  0.6645  5.2$  7.12$  18.9$
|326>   Q  0.6645  6.07$  7.04$  20.16$
|327>   Q  -1.3290  5.86$  6.85$  19.36$
|328>   Q  0.6645  5.97$  3.16$  19.28$
|329>   Q  0.6645  7.5$  3.1$  18.71$
|330>   Q  -1.3290  6.81$  2.9$  19.19$
|331>   Q  0.6645  13.12$  3.73$  6.16$
|332>   Q  0.6645  14.56$  4.01$  6.4$
|333>   Q  -1.3290  13.88$  3.63$  6.56$
|334>   Q  0.6645  8.91$  15.18$  16.28$
|335>   Q  0.6645  8.14$  16.24$  15.54$
|336>   Q  -1.3290  8.78$  15.95$  15.97$
|337>   Q  0.6645  4.21$  2.7$  10.79$
|338>   Q  0.6645  4.65$  2.08$  12$
|339>   Q  -1.3290  4.59$  2.75$  11.49$
|340>   Q  0.6645  13.37$  1.72$  11.1$
|341>   Q  0.6645  12.44$  1.23$  12.35$
|342>   Q  -1.3290  13.21$  1.43$  11.89$
|343>   Q  0.6645  6.46$  4.72$  12.94$
|344>   Q  0.6645  5.35$  5.89$  13.4$
|345>   Q  -1.3290  5.97$  5.47$  12.9$
|346>   Q  0.6645  8.95$  18.58$  13.74$
|347>   Q  0.6645  8.65$  19.24$  12.38$
|348>   Q  -1.3290  8.44$  18.84$  13.1$
|349>   Q  0.6645  18.86$  13.67$  4.76$
|350>   Q  0.6645  19.28$  14.87$  4.07$
|351>   Q  -1.3290  18.97$  14.46$  4.69$
|352>   Q  0.6645  5.32$  13.11$  16.81$
|353>   Q  0.6645  6.3$  13.45$  15.5$
|354>   Q  -1.3290  5.65$  13.52$  16.09$
|355>   Q  0.6645  13.59$  11.5$  20.06$
|356>   Q  0.6645  13.96$  11.45$  18.41$
|357>   Q  -1.3290  13.75$  11.14$  19.24$
|358>   Q  0.6645  5.48$  2.31$  16.18$
|359>   Q  0.6645  5.61$  0.88$  16.81$
|360>   Q  -1.3290  5.74$  1.5$  16.22$
|361>   Q  0.6645  8.33$  8.94$  19.42$
|362>   Q  0.6645  7.39$  7.84$  18.81$
|363>   Q  -1.3290  7.93$  8.52$  18.79$
|364>   Q  0.6645  4.53$  14.1$  13.94$
|365>   Q  0.6645  4.01$  15.57$  14.14$
|366>   Q  -1.3290  4.56$  14.95$  13.91$
|367>   Q  0.6645  11.06$  5.85$  7.52$
|368>   Q  0.6645  10.37$  4.59$  7.89$
|369>   Q  -1.3290  10.71$  5.12$  7.37$
|370>   Q  0.6645  13.46$  6.23$  12.9$
|371>   Q  0.6645  13.04$  4.74$  12.7$
|372>   Q  -1.3290  13.48$  5.4$  13.04$
|373>   Q  0.6645  12.69$  16.68$  20.44$
|374>   Q  0.6645  11.37$  16.26$  19.68$
|375>   Q  -1.3290  12.2$  16.44$  19.79$
|376>   Q  0.6645  9.53$  9.44$  21.42$
|377>   Q  0.6645  10.08$  8.29$  20.7$
|378>   Q  -1.3290  9.73$  9.04$  20.73$
|379>   Q  0.6645  3.48$  10.62$  18.55$
|380>   Q  0.6645  4.37$  9.58$  19.27$
|381>   Q  -1.3290  3.98$  9.94$  18.61$
|382>   Q  0.6645  5.63$  19.32$  10.46$
|383>   Q  0.6645  4.88$  20.62$  10.97$
|384>   Q  -1.3290  5.39$  20.16$  10.47$
|385>   Q  0.6645  3.57$  6.12$  14.41$
|386>   Q  0.6645  4.51$  6.83$  15.36$
|387>   Q  -1.3290  4.22$  6.2$  14.91$
|388>   Q  0.6645  6.75$  17.14$  10.11$
|389>   Q  0.6645  5.57$  17.13$  11.11$
|390>   Q  -1.3290  6.05$  17.45$  10.48$
|391>   Q  0.6645  16.37$  14.81$  5.34$
|392>   Q  0.6645  15.29$  14.16$  6.23$
|393>   Q  -1.3290  15.78$  14.26$  5.52$
|394>   Q  0.6645  10.03$  5.63$  14.54$
|395>   Q  0.6645  10.54$  5.94$  13.15$
|396>   Q  -1.3290  10.33$  5.44$  13.76$
|397>   Q  0.6645  7.16$  6.57$  6.82$
|398>   Q  0.6645  8.41$  6.19$  7.78$
|399>   Q  -1.3290  7.91$  6.68$  7.24$
|400>   Q  0.6645  14.37$  1.98$  14.03$
|401>   Q  0.6645  15.25$  2.3$  15.15$
|402>   Q  -1.3290  14.52$  2.06$  14.85$
|403>   Q  0.6645  19.86$  10.39$  13.61$
|404>   Q  0.6645  18.76$  11.19$  12.94$
|405>   Q  -1.3290  19.31$  10.56$  13.02$
|406>   Q  0.6645  14.15$  18.82$  16.16$
|407>   Q  0.6645  13.9$  19.56$  17.46$
|408>   Q  -1.3290  14.39$  19.2$  16.86$
|409>   Q  0.6645  17.51$  6.46$  4.8$
|410>   Q  0.6645  19.01$  5.86$  4.6$
|411>   Q  -1.3290  18.35$  6.23$  5.02$
|412>   Q  0.6645  1.36$  9.7$  12$
|413>   Q  0.6645  2.35$  8.65$  11.98$
|414>   Q  -1.3290  1.71$  9.04$  12.28$
|415>   Q  0.6645  8.77$  16.29$  19.46$
|416>   Q  0.6645  9.67$  15.39$  20.38$
|417>   Q  -1.3290  9.43$  15.75$  19.64$
|418>   Q  0.6645  5.58$  11.64$  13.17$
|419>   Q  0.6645  4.14$  11.69$  12.45$
|420>   Q  -1.3290  4.91$  11.37$  12.68$
|421>   Q  0.6645  4.77$  8.81$  11.91$
|422>   Q  0.6645  4.59$  7.33$  11.7$
|423>   Q  -1.3290  4.45$  8.05$  12.05$
|424>   Q  0.6645  4.29$  16$  12.17$
|425>   Q  0.6645  3.34$  17$  11.62$
|426>   Q  -1.3290  4.05$  16.75$  11.99$
|427>   Q  0.6645  13.78$  7.91$  18.02$
|428>   Q  0.6645  13.17$  9.34$  18.67$
|429>   Q  -1.3290  13.24$  8.46$  18.48$
|430>   Q  0.6645  13.12$  6.09$  8.91$
|431>   Q  0.6645  13.44$  4.79$  8.22$
|432>   Q  -1.3290  13.41$  5.31$  8.87$
|433>   Q  0.6645  7.94$  13.09$  18.55$
|434>   Q  0.6645  7.26$  11.74$  18.17$
|435>   Q  -1.3290  7.48$  12.39$  18.69$
|436>   Q  0.6645  15.26$  9.7$  19.64$
|437>   Q  0.6645  16.24$  8.42$  20.2$
|438>   Q  -1.3290  15.96$  9.14$  19.68$
|439>   Q  0.6645  8.62$  7.37$  2.82$
|440>   Q  0.6645  7.51$  8.47$  3.03$
|441>   Q  -1.3290  8.06$  7.99$  2.59$
|442>   Q  0.6645  8.19$  6.28$  21.13$
|443>   Q  0.6645  9.2$  5.81$  19.95$
|444>   Q  -1.3290  8.83$  5.83$  20.72$
|445>   Q  0.6645  15.31$  3.01$  11.93$
|446>   Q  0.6645  15.12$  3.98$  13.13$
|447>   Q  -1.3290  15.45$  3.29$  12.73$
|448>   Q  0.6645  19.52$  13.72$  16.6$
|449>   Q  0.6645  19$  15.24$  16.65$
|450>   Q  -1.3290  18.92$  14.36$  16.63$
|451>   Q  0.6645  8.83$  4.11$  13.61$
|452>   Q  0.6645  8.28$  2.81$  13.9$
|453>   Q  -1.3290  8.25$  3.55$  13.53$
|454>   Q  0.6645  13.55$  13.97$  2.3$
|455>   Q  0.6645  13.61$  15.23$  1.32$
|456>   Q  -1.3290  13.29$  14.51$  1.69$
|457>   Q  0.6645  15.87$  19.64$  9.53$
|458>   Q  0.6645  16.14$  18.08$  9.35$
|459>   Q  -1.3290  16.24$  18.89$  9.68$
|460>   Q  0.6645  16.66$  10.83$  4.05$
|461>   Q  0.6645  15.63$  9.77$  4.62$
|462>   Q  -1.3290  15.96$  10.35$  4.1$
|463>   Q  0.6645  14.63$  11.83$  3.36$
|464>   Q  0.6645  14.88$  13.26$  4.08$
|465>   Q  -1.3290  14.56$  12.69$  3.47$
|466>   Q  0.6645  6.96$  17.28$  4.76$
|467>   Q  0.6645  6.72$  18.47$  3.73$
|468>   Q  -1.3290  6.94$  18.09$  4.49$
|469>   Q  0.6645  2.84$  12.07$  4.8$
|470>   Q  0.6645  1.75$  11.18$  4.66$
|471>   Q  -1.3290  2.27$  11.73$  4.36$
|472>   Q  0.6645  13.97$  6.4$  16.19$
|473>   Q  0.6645  15.41$  6.11$  16.1$
|474>   Q  -1.3290  14.73$  6.34$  16.48$
|475>   Q  0.6645  9.03$  19.35$  15.73$
|476>   Q  0.6645  10.41$  18.67$  16.12$
|477>   Q  -1.3290  9.79$  18.99$  15.57$
|478>   Q  0.6645  11.53$  2.98$  4.36$
|479>   Q  0.6645  10.75$  1.83$  5$
|480>   Q  -1.3290  11.35$  2.19$  4.54$
|481>   Q  0.6645  7.21$  2.03$  4.22$
|482>   Q  0.6645  7.48$  3.52$  4.08$
|483>   Q  -1.3290  7.13$  2.84$  4.43$
|484>   Q  0.6645  14.67$  16.25$  4.49$
|485>   Q  0.6645  14.02$  16.59$  3.12$
|486>   Q  -1.3290  14.1$  16.55$  3.97$
|487>   Q  0.6645  17.52$  12.11$  18.29$
|488>   Q  0.6645  17.41$  10.64$  18.72$
|489>   Q  -1.3290  17.77$  11.31$  18.31$
|490>   Q  0.6645  3.32$  9.29$  15.08$
|491>   Q  0.6645  2.39$  9.62$  13.93$
|492>   Q  -1.3290  2.7$  9.71$  14.7$
|493>   Q  0.6645  18.84$  3.29$  13.2$
|494>   Q  0.6645  17.31$  2.81$  13.2$
|495>   Q  -1.3290  18.17$  2.77$  13.35$
|496>   Q  0.6645  4.59$  7.7$  8.73$
|497>   Q  0.6645  3.97$  8.8$  7.86$
|498>   Q  -1.3290  4.57$  8.25$  8.11$
|499>   Q  0.6645  10.38$  17.7$  3.22$
|500>   Q  0.6645  9.19$  17.82$  4.11$
|501>   Q  -1.3290  9.93$  18.03$  3.84$
|502>   Q  0.6645  3.34$  3.51$  12.96$
|503>   Q  0.6645  1.91$  3.07$  13.65$
|504>   Q  -1.3290  2.58$  3.57$  13.36$
|505>   Q  0.6645  16.31$  18.64$  6.47$
|506>   Q  0.6645  15.07$  18.74$  7.38$
|507>   Q  -1.3290  15.52$  18.84$  6.69$
|508>   Q  0.6645  17.68$  13.21$  13.23$
|509>   Q  0.6645  18.03$  13.35$  14.67$
|510>   Q  -1.3290  18.24$  13.25$  13.86$
|511>   Q  0.6645  18.3$  13.78$  8.54$
|512>   Q  0.6645  17.51$  12.42$  8.52$
|513>   Q  -1.3290  18$  13.02$  8.86$
|514>   Q  0.6645  8.51$  12.58$  16.46$
|515>   Q  0.6645  9.8$  13.19$  16.84$
|516>   Q  -1.3290  8.99$  13.24$  16.62$
|517>   Q  0.6645  11.35$  5.27$  4.89$
|518>   Q  0.6645  12.41$  5.35$  3.81$
|519>   Q  -1.3290  12.03$  5.02$  4.47$
|520>   Q  0.6645  9.55$  15.17$  4.03$
|521>   Q  0.6645  8.23$  15.25$  3.12$
|522>   Q  -1.3290  8.75$  15.41$  3.79$
|523>   Q  0.6645  4.36$  16.29$  17.4$
|524>   Q  0.6645  2.91$  16.49$  17.39$
|525>   Q  -1.3290  3.68$  16.59$  17.69$
|526>   Q  0.6645  5.99$  13.76$  5.63$
|527>   Q  0.6645  4.8$  14.47$  4.9$
|528>   Q  -1.3290  5.19$  14.01$  5.51$
|529>   Q  0.6645  3.62$  12.86$  6.81$
|530>   Q  0.6645  2.09$  12.46$  7.02$
|531>   Q  -1.3290  2.92$  12.34$  6.89$
|532>   Q  0.6645  9.53$  7.14$  16$
|533>   Q  0.6645  8.13$  6.49$  15.71$
|534>   Q  -1.3290  8.81$  6.97$  15.52$
|535>   Q  0.6645  12.42$  2.36$  15.33$
|536>   Q  0.6645  11.09$  2.7$  14.46$
|537>   Q  -1.3290  11.58$  2.47$  15.15$
|538>   Q  0.6645  12.6$  18.78$  14.64$
|539>   Q  0.6645  12.52$  17.2$  14.96$
|540>   Q  -1.3290  12.9$  17.98$  14.88$
|541>   Q  0.6645  3.17$  16.13$  7.29$
|542>   Q  0.6645  1.71$  16.41$  7.03$
|543>   Q  -1.3290  2.52$  16.41$  6.83$
|544>   Q  0.6645  6.35$  4.82$  16.77$
|545>   Q  0.6645  7.12$  5.65$  17.7$
|546>   Q  -1.3290  7.02$  5.23$  16.99$
|547>   Q  0.6645  15.28$  12.72$  16.83$
|548>   Q  0.6645  14.04$  12.69$  15.85$
|549>   Q  -1.3290  14.52$  12.41$  16.51$
|550>   Q  0.6645  12.61$  7.75$  20.23$
|551>   Q  0.6645  12.6$  8.72$  21.46$
|552>   Q  -1.3290  12.69$  7.98$  21.07$
|553>   Q  0.6645  7.47$  13.53$  1.25$
|554>   Q  0.6645  7.44$  13.34$  2.72$
|555>   Q  -1.3290  7.39$  13.8$  2.03$
|556>   Q  0.6645  8.53$  9.8$  1.7$
|557>   Q  0.6645  8.54$  11.13$  1.03$
|558>   Q  -1.3290  8.89$  10.5$  1.45$
|559>   Q  0.6645  21.74$  14.37$  12.76$
|560>   Q  0.6645  20.49$  13.43$  12.56$
|561>   Q  -1.3290  21.23$  13.78$  12.35$
|562>   Q  0.6645  10.17$  16.99$  17.1$
|563>   Q  0.6645  11.28$  17.46$  18.22$
|564>   Q  -1.3290  10.68$  17.52$  17.57$
|565>   Q  0.6645  16.59$  8.67$  17.09$
|566>   Q  0.6645  17.18$  8.31$  15.73$
|567>   Q  -1.3290  17.21$  8.59$  16.52$
|568>   Q  0.6645  6.68$  11.72$  21.98$
|569>   Q  0.6645  7.4$  11.96$  20.59$
|570>   Q  -1.3290  7.34$  11.9$  21.46$
|571>   Q  0.6645  11.58$  9.33$  3.26$
|572>   Q  0.6645  12.3$  8.05$  3.13$
|573>   Q  -1.3290  11.93$  8.65$  3.55$
|574>   Q  0.6645  4.47$  10.2$  0.51$
|575>   Q  0.6645  5.13$  10.4$  1.86$
|576>   Q  -1.3290  4.86$  10.61$  1.1$
|577>   Q  0.6645  15.26$  5.87$  9.23$
|578>   Q  0.6645  16.54$  6.31$  9.98$
|579>   Q  -1.3290  16.04$  6.26$  9.32$
|580>   Q  0.6645  10.2$  -0.07$  12.11$
|581>   Q  0.6645  10.2$  0.66$  13.49$
|582>   Q  -1.3290  10.38$  0.58$  12.67$
|583>   Q  0.6645  1.57$  12.6$  12.16$
|584>   Q  0.6645  2.77$  12.72$  13.11$
|585>   Q  -1.3290  2.39$  12.53$  12.38$
|586>   Q  0.6645  19.57$  11.48$  9.89$
|587>   Q  0.6645  19.72$  10.63$  11.12$
|588>   Q  -1.3290  19.91$  10.87$  10.35$
|589>   Q  0.6645  13.08$  18.39$  4.96$
|590>   Q  0.6645  11.57$  18.22$  5.18$
|591>   Q  -1.3290  12.34$  18.47$  5.36$
|592>   Q  0.6645  5.47$  15.61$  7.71$
|593>   Q  0.6645  5.12$  16.6$  8.87$
|594>   Q  -1.3290  5.07$  15.86$  8.43$
|595>   Q  0.6645  5.65$  10.03$  6.55$
|596>   Q  0.6645  4.46$  10.97$  6.28$
|597>   Q  -1.3290  5.13$  10.49$  6.07$
|598>   Q  0.6645  12.09$  12.08$  21.25$
|599>   Q  0.6645  13.07$  13.12$  21.78$
|600>   Q  -1.3290  12.82$  12.34$  21.6$
|601>   Q  0.6645  16.66$  6.61$  12.19$
|602>   Q  0.6645  18.15$  6.59$  12.19$
|603>   Q  -1.3290  17.4$  6.55$  11.84$
|604>   Q  0.6645  1.58$  9.35$  8.76$
|605>   Q  0.6645  1.5$  8$  7.94$
|606>   Q  -1.3290  1.76$  8.8$  8.13$
|607>   Q  0.6645  8.87$  20.78$  10.58$
|608>   Q  0.6645  9.94$  19.83$  10.19$
|609>   Q  -1.3290  9.57$  20.34$  10.72$
|610>   Q  0.6645  1.49$  7.55$  13.68$
|611>   Q  0.6645  1.84$  6.18$  13.06$
|612>   Q  -1.3290  1.71$  6.74$  13.68$
|613>   Q  0.6645  16.94$  16.9$  16.75$
|614>   Q  0.6645  15.89$  17.72$  17.39$
|615>   Q  -1.3290  16.54$  17.21$  17.42$
|616>   Q  0.6645  12.68$  4.1$  10.26$
|617>   Q  0.6645  11.51$  3.39$  10.85$
|618>   Q  -1.3290  12.16$  3.9$  10.88$
|619>   Q  0.6645  10.9$  18.36$  9.44$
|620>   Q  0.6645  10.65$  19.01$  8.12$
|621>   Q  -1.3290  10.42$  18.68$  8.86$
|622>   Q  0.6645  17.95$  15.66$  7.93$
|623>   Q  0.6645  18.75$  15.1$  6.59$
|624>   Q  -1.3290  18.6$  15.28$  7.45$
|625>   Q  0.6645  16.25$  17.77$  4.62$
|626>   Q  0.6645  17.06$  16.96$  5.59$
|627>   Q  -1.3290  16.73$  17.13$  4.86$
|628>   Q  0.6645  14.55$  8.67$  13.92$
|629>   Q  0.6645  14.95$  7.08$  13.95$
|630>   Q  -1.3290  14.75$  7.85$  13.61$
|631>   Q  0.6645  2.55$  12.8$  18.01$
|632>   Q  0.6645  3.91$  13.19$  18.65$
|633>   Q  -1.3290  3.38$  12.78$  18.14$
|634>   Q  0.6645  15.65$  19.11$  12.8$
|635>   Q  0.6645  15.86$  18.17$  11.7$
|636>   Q  -1.3290  15.87$  18.39$  12.51$
|637>   Q  0.6645  9.3$  4.41$  2.57$
|638>   Q  0.6645  8.01$  3.8$  1.94$
|639>   Q  -1.3290  8.46$  4.25$  2.5$
|640>   Q  0.6645  18.8$  7.46$  17.26$
|641>   Q  0.6645  19.12$  6.31$  18.34$
|642>   Q  -1.3290  19.26$  6.87$  17.69$
|643>   Q  0.6645  20.2$  15.85$  13.16$
|644>   Q  0.6645  19.06$  14.99$  13.81$
|645>   Q  -1.3290  19.64$  15.64$  13.77$
|646>   Q  0.6645  8.63$  4.09$  16.81$
|647>   Q  0.6645  9.78$  3.7$  17.84$
|648>   Q  -1.3290  9.18$  3.56$  17.21$
|649>   Q  0.6645  17.49$  6.42$  14.76$
|650>   Q  0.6645  17.1$  4.88$  15.13$
|651>   Q  -1.3290  17$  5.7$  14.94$
|652>   Q  0.6645  8.39$  3.84$  9.61$
|653>   Q  0.6645  8.17$  3.72$  8.14$
|654>   Q  -1.3290  8.45$  4.1$  8.81$
|655>   Q  0.6645  7.13$  3.02$  6.33$
|656>   Q  0.6645  7.11$  1.8$  7.27$
|657>   Q  -1.3290  7.04$  2.64$  7.08$
|658>   Q  0.6645  5.49$  14.47$  2.88$
|659>   Q  0.6645  3.98$  14.55$  2.61$
|660>   Q  -1.3290  4.7$  14.71$  3.02$
|661> *
|662> 
|663>                          ****END OF INPUT****
================================================================================

                     *******************************
                     * Energy+Gradient Calculation *
                     *******************************

---------------------------------
CARTESIAN COORDINATES (ANGSTROEM)
---------------------------------
  C     10.250000   11.410000   12.650000
  H      9.480000   11.640000   11.940000
  H     10.690000   12.380000   12.870000
  C     11.210000   10.240000   12.090000
  H     12.050000    9.990000   12.780000
  H     10.640000    9.260000   12.130000
  C     11.780000   10.520000   10.750000
  H     12.380000    9.720000   10.350000
  H     12.500000   11.370000   10.890000
  C     10.860000   10.920000    9.720000
  H     10.240000   11.760000    9.880000
  H     10.210000   10.120000    9.390000
  O     11.580000   11.180000    8.470000
  H     10.900000   11.250000    7.810000
  O      9.520000   11.020000   13.820000
  H      9.140000   10.150000   13.730000
  O      7.860000   11.850000   10.210000
  H      7.230000   11.140000   10.280000
  H      7.590000   12.640000   10.710000
  O     11.390000   10.290000   15.940000
  H     11.120000    9.450000   16.320000
  H     10.930000   10.410000   15.100000
  O     13.890000   12.720000    9.200000
  H     13.010000   12.310000    9.230000
  H     14.280000   12.830000   10.050000
  O     11.530000   14.770000   11.790000
  H     11.120000   14.850000   10.880000
  H     10.810000   14.740000   12.480000
  O      9.720000   11.070000    6.230000
  H     10.480000   11.530000    5.880000
  H      9.090000   11.760000    6.470000
  O      8.500000   13.100000    7.590000
  H      8.210000   12.620000    8.420000
  H      9.230000   13.540000    8.030000
  O      9.540000    7.520000    9.720000
  H      8.870000    7.990000    9.120000
  H      9.060000    7.420000   10.570000
  O     11.400000   12.500000   17.550000
  H     12.040000   13.240000   17.480000
  H     11.310000   11.910000   16.780000
  O     10.460000    7.990000   17.120000
  H      9.730000    8.340000   17.630000
  H     11.340000    7.920000   17.570000
  O     13.350000   16.710000   11.930000
  H     13.640000   17.120000   12.740000
  H     12.510000   16.220000   12.030000
  O     11.900000    7.390000    8.470000
  H     11.080000    7.570000    8.930000
  H     12.300000    8.260000    8.430000
  O     13.710000    9.450000    7.820000
  H     14.200000    9.550000    8.640000
  H     13.050000   10.150000    7.900000
  O      6.070000    9.190000   10.110000
  H      5.360000    9.800000   10.010000
  H      6.320000    9.060000    9.170000
  O      7.270000    9.220000   14.570000
  H      7.200000    8.950000   13.650000
  H      7.740000    8.480000   15.010000
  O      7.920000   10.830000   16.690000
  H      7.610000   10.410000   15.920000
  H      8.060000   10.160000   17.390000
  O     13.460000   13.030000   14.140000
  H     13.780000   13.250000   13.260000
  H     12.850000   13.800000   14.250000
  O     14.310000   13.670000   11.570000
  H     15.200000   13.760000   11.830000
  H     13.910000   14.620000   11.660000
  O     11.930000   12.290000    5.160000
  H     12.730000   11.920000    5.530000
  H     11.920000   12.080000    4.210000
  O     11.760000    6.830000   11.550000
  H     11.280000    7.380000   10.950000
  H     12.090000    6.100000   11.010000
  O      9.530000   14.680000   13.560000
  H      9.370000   14.210000   14.390000
  H      8.870000   15.310000   13.610000
  O     14.490000   14.640000    7.610000
  H     13.760000   15.260000    7.580000
  H     14.270000   14.030000    8.310000
  O      7.850000    9.400000    7.530000
  H      8.590000    9.780000    7.050000
  H      7.890000    8.490000    7.290000
  O      7.380000   12.090000    4.270000
  H      8.150000   11.580000    4.420000
  H      6.620000   11.740000    4.750000
  O      6.940000   14.580000   10.740000
  H      7.190000   15.010000   11.550000
  H      6.040000   14.250000   10.790000
  O      7.290000   12.700000   14.070000
  H      7.520000   13.370000   13.400000
  H      8.020000   12.080000   14.030000
  O     13.760000   10.030000   14.650000
  H     13.180000    9.790000   15.430000
  H     13.440000   10.910000   14.450000
  O     10.360000   15.110000    8.840000
  H     10.970000   15.450000    8.200000
  H      9.580000   15.680000    8.800000
  Q      5.020000    5.240000   10.690000
  Q      4.390000    5.480000    9.300000
  Q      4.570000    5.670000   10.080000
  Q      0.970000    7.840000   16.750000
  Q      1.400000    9.180000   16.130000
  Q      0.950000    8.700000   16.620000
  Q      5.530000    6.270000    5.310000
  Q      5.210000    6.990000    6.610000
  Q      5.490000    6.360000    6.130000
  Q     13.270000    6.670000    1.460000
  Q     13.720000    5.510000    2.410000
  Q     13.290000    6.190000    2.190000
  Q     19.060000    6.360000    7.060000
  Q     19.770000    6.190000    8.510000
  Q     19.570000    6.530000    7.740000
  Q     11.880000   21.310000   14.190000
  Q     11.030000   20.190000   14.640000
  Q     11.660000   20.510000   14.240000
  Q      4.130000    6.290000    3.840000
  Q      5.200000    6.050000    2.770000
  Q      4.880000    6.440000    3.420000
  Q      0.270000   11.070000   10.150000
  Q      1.840000   11.350000    9.980000
  Q      1.120000   10.930000   10.040000
  Q     15.870000    5.490000   19.090000
  Q     15.020000    5.120000   17.870000
  Q     15.490000    4.930000   18.530000
  Q      5.400000    9.840000    3.990000
  Q      5.590000    8.430000    3.350000
  Q      5.680000    9.280000    3.410000
  Q      7.040000    8.430000   11.480000
  Q      7.220000    7.170000   12.240000
  Q      7.470000    7.900000   11.950000
  Q     10.820000   15.590000   15.220000
  Q     12.110000   15.280000   16.110000
  Q     11.630000   15.390000   15.390000
  Q      5.960000   16.880000   15.710000
  Q      5.910000   15.500000   16.250000
  Q      5.980000   16.310000   16.320000
  Q      9.940000    1.320000   10.430000
  Q      9.960000    1.800000    9.090000
  Q     10.300000    1.670000    9.810000
  Q      4.670000    4.550000    7.180000
  Q      5.520000    3.580000    7.930000
  Q      4.820000    3.990000    7.800000
  Q     18.220000    8.760000   13.730000
  Q     19.370000    7.790000   14.290000
  Q     18.560000    8.050000   14.110000
  Q      6.330000    2.880000   10.970000
  Q      7.570000    2.880000   11.740000
  Q      7.110000    2.640000   11.100000
  Q     13.950000    8.890000    6.280000
  Q     13.320000    8.850000    4.920000
  Q     13.950000    8.740000    5.440000
  Q     13.120000   15.230000   18.130000
  Q     14.000000   14.270000   17.260000
  Q     13.310000   14.710000   17.500000
  Q     15.190000    4.550000    3.950000
  Q     15.570000    4.310000    2.560000
  Q     15.250000    4.110000    3.270000
  Q     10.620000   10.830000   20.200000
  Q     10.900000   11.980000   19.300000
  Q     10.780000   11.610000   20.040000
  Q      9.000000    1.960000   15.730000
  Q      7.600000    1.370000   15.310000
  Q      8.440000    1.500000   15.240000
  Q     14.620000   10.470000    0.910000
  Q     14.830000   10.000000    2.300000
  Q     14.520000    9.950000    1.530000
  Q     10.920000   14.230000    0.910000
  Q     10.080000   13.260000    0.060000
  Q     10.230000   13.960000    0.490000
  Q     16.690000   17.450000   14.540000
  Q     18.030000   16.660000   14.740000
  Q     17.320000   17.050000   14.960000
  Q      4.280000    4.670000   16.030000
  Q      3.710000    3.500000   16.640000
  Q      4.300000    4.070000   16.600000
  Q      6.280000   15.810000   13.590000
  Q      7.180000   16.980000   13.480000
  Q      7.030000   16.160000   13.550000
  Q     20.140000   16.940000   10.880000
  Q     20.870000   15.810000   10.670000
  Q     20.240000   16.170000   10.930000
  Q     10.370000    7.370000    4.730000
  Q      9.300000    6.550000    5.410000
  Q      9.740000    6.810000    4.760000
  Q     17.020000   10.600000    7.460000
  Q     15.750000   11.460000    7.660000
  Q     16.540000   11.320000    7.460000
  Q      7.830000   15.420000    5.830000
  Q      7.580000   14.640000    7.120000
  Q      7.390000   15.210000    6.510000
  Q     17.590000   11.910000    5.840000
  Q     18.980000   11.270000    5.330000
  Q     18.210000   11.680000    5.260000
  Q      5.590000    7.040000    0.810000
  Q      7.140000    7.460000    1.080000
  Q      6.410000    7.310000    0.610000
  Q     12.510000    1.900000    9.190000
  Q     13.730000    2.130000    8.230000
  Q     13.280000    1.760000    8.840000
  Q      3.860000   13.130000   15.450000
  Q      3.700000   11.740000   14.760000
  Q      3.490000   12.550000   14.900000
  Q      8.850000   15.730000    0.780000
  Q      8.970000   17.310000    0.870000
  Q      8.590000   16.540000    0.840000
  Q     16.000000   12.190000    2.120000
  Q     16.770000   12.520000    0.850000
  Q     16.430000   12.000000    1.430000
  Q     11.510000    4.710000   19.250000
  Q     11.350000    5.420000   17.890000
  Q     11.150000    5.200000   18.670000
  Q     15.800000    8.230000    1.460000
  Q     17.190000    7.370000    1.610000
  Q     16.340000    7.550000    1.590000
  Q     15.730000   15.740000    8.810000
  Q     16.510000   15.990000   10.080000
  Q     16.200000   16.210000    9.320000
  Q      7.590000   16.670000    7.790000
  Q      8.550000   17.750000    8.500000
  Q      8.050000   17.030000    8.410000
  Q     15.670000    6.940000    3.400000
  Q     15.420000    7.300000    5.010000
  Q     15.750000    6.850000    4.280000
  Q      3.750000   11.050000    8.440000
  Q      4.340000   12.150000    9.560000
  Q      4.230000   11.370000    9.140000
  Q      4.300000   14.730000    9.660000
  Q      3.200000   13.880000   10.290000
  Q      3.980000   14.170000   10.230000
  Q     16.250000   11.640000   12.780000
  Q     16.500000   11.330000   11.310000
  Q     16.560000   11.780000   12.000000
  Q      3.000000    8.160000   18.430000
  Q      2.690000    6.620000   18.160000
  Q      3.100000    7.300000   18.500000
  Q     18.810000    8.400000    7.920000
  Q     18.760000    9.440000    8.910000
  Q     18.640000    9.140000    8.140000
  Q     12.290000   11.510000    1.890000
  Q     10.630000   11.390000    2.030000
  Q     11.490000   11.360000    2.280000
  Q     16.040000   15.250000   17.730000
  Q     17.000000   14.150000   17.050000
  Q     16.280000   14.470000   17.440000
  Q     15.530000    8.610000   11.070000
  Q     15.920000    8.240000    9.710000
  Q     15.580000    8.750000   10.270000
  Q     11.560000   14.100000    5.000000
  Q     12.280000   15.400000    4.610000
  Q     11.620000   14.950000    4.890000
  Q     15.700000    6.740000   21.500000
  Q     14.690000    6.910000   20.480000
  Q     15.440000    6.740000   20.720000
  Q     17.220000    5.160000    6.230000
  Q     16.600000    5.170000    7.610000
  Q     16.700000    4.850000    6.850000
  Q      7.010000   16.990000   18.320000
  Q      6.730000   17.360000   19.830000
  Q      7.210000   17.280000   19.110000
  Q     18.280000   15.460000   11.390000
  Q     17.430000   14.220000   11.250000
  Q     17.610000   14.990000   11.490000
  Q     13.320000   19.190000    9.860000
  Q     13.200000   17.860000   10.660000
  Q     13.030000   18.400000   10.030000
  Q     16.780000    1.750000   10.610000
  Q     16.000000    1.090000    9.450000
  Q     16.260000    1.730000    9.950000
  Q      2.030000    4.740000   11.890000
  Q      2.880000    5.680000   11.010000
  Q      2.160000    5.400000   11.350000
  Q     21.050000   10.170000    6.360000
  Q     19.600000   10.310000    6.980000
  Q     20.300000   10.580000    6.570000
  Q      3.700000   17.630000   15.390000
  Q      2.370000   17.010000   15.660000
  Q      3.080000   17.160000   15.180000
  Q     12.020000    4.300000   15.880000
  Q     12.110000    5.410000   14.880000
  Q     12.090000    5.110000   15.680000
  Q     12.660000   17.160000    6.760000
  Q     12.870000   17.290000    8.260000
  Q     12.670000   16.900000    7.560000
  Q     19.250000    9.410000   15.740000
  Q     20.730000    9.930000   16.140000
  Q     20.020000    9.810000   15.620000
  Q     15.730000   11.130000   15.440000
  Q     17.180000   11.020000   15.650000
  Q     16.530000   11.250000   15.210000
  Q      4.720000    9.160000   16.790000
  Q      5.650000    9.070000   15.610000
  Q      5.060000    8.800000   16.120000
  Q      1.590000   12.770000   15.970000
  Q      0.470000   12.950000   17.050000
  Q      1.000000   13.170000   16.400000
  Q      5.000000   17.940000   13.410000
  Q      6.190000   18.720000   13.310000
  Q      5.620000   18.370000   13.780000
  Q      5.200000    7.120000   18.900000
  Q      6.070000    7.040000   20.160000
  Q      5.860000    6.850000   19.360000
  Q      5.970000    3.160000   19.280000
  Q      7.500000    3.100000   18.710000
  Q      6.810000    2.900000   19.190000
  Q     13.120000    3.730000    6.160000
  Q     14.560000    4.010000    6.400000
  Q     13.880000    3.630000    6.560000
  Q      8.910000   15.180000   16.280000
  Q      8.140000   16.240000   15.540000
  Q      8.780000   15.950000   15.970000
  Q      4.210000    2.700000   10.790000
  Q      4.650000    2.080000   12.000000
  Q      4.590000    2.750000   11.490000
  Q     13.370000    1.720000   11.100000
  Q     12.440000    1.230000   12.350000
  Q     13.210000    1.430000   11.890000
  Q      6.460000    4.720000   12.940000
  Q      5.350000    5.890000   13.400000
  Q      5.970000    5.470000   12.900000
  Q      8.950000   18.580000   13.740000
  Q      8.650000   19.240000   12.380000
  Q      8.440000   18.840000   13.100000
  Q     18.860000   13.670000    4.760000
  Q     19.280000   14.870000    4.070000
  Q     18.970000   14.460000    4.690000
  Q      5.320000   13.110000   16.810000
  Q      6.300000   13.450000   15.500000
  Q      5.650000   13.520000   16.090000
  Q     13.590000   11.500000   20.060000
  Q     13.960000   11.450000   18.410000
  Q     13.750000   11.140000   19.240000
  Q      5.480000    2.310000   16.180000
  Q      5.610000    0.880000   16.810000
  Q      5.740000    1.500000   16.220000
  Q      8.330000    8.940000   19.420000
  Q      7.390000    7.840000   18.810000
  Q      7.930000    8.520000   18.790000
  Q      4.530000   14.100000   13.940000
  Q      4.010000   15.570000   14.140000
  Q      4.560000   14.950000   13.910000
  Q     11.060000    5.850000    7.520000
  Q     10.370000    4.590000    7.890000
  Q     10.710000    5.120000    7.370000
  Q     13.460000    6.230000   12.900000
  Q     13.040000    4.740000   12.700000
  Q     13.480000    5.400000   13.040000
  Q     12.690000   16.680000   20.440000
  Q     11.370000   16.260000   19.680000
  Q     12.200000   16.440000   19.790000
  Q      9.530000    9.440000   21.420000
  Q     10.080000    8.290000   20.700000
  Q      9.730000    9.040000   20.730000
  Q      3.480000   10.620000   18.550000
  Q      4.370000    9.580000   19.270000
  Q      3.980000    9.940000   18.610000
  Q      5.630000   19.320000   10.460000
  Q      4.880000   20.620000   10.970000
  Q      5.390000   20.160000   10.470000
  Q      3.570000    6.120000   14.410000
  Q      4.510000    6.830000   15.360000
  Q      4.220000    6.200000   14.910000
  Q      6.750000   17.140000   10.110000
  Q      5.570000   17.130000   11.110000
  Q      6.050000   17.450000   10.480000
  Q     16.370000   14.810000    5.340000
  Q     15.290000   14.160000    6.230000
  Q     15.780000   14.260000    5.520000
  Q     10.030000    5.630000   14.540000
  Q     10.540000    5.940000   13.150000
  Q     10.330000    5.440000   13.760000
  Q      7.160000    6.570000    6.820000
  Q      8.410000    6.190000    7.780000
  Q      7.910000    6.680000    7.240000
  Q     14.370000    1.980000   14.030000
  Q     15.250000    2.300000   15.150000
  Q     14.520000    2.060000   14.850000
  Q     19.860000   10.390000   13.610000
  Q     18.760000   11.190000   12.940000
  Q     19.310000   10.560000   13.020000
  Q     14.150000   18.820000   16.160000
  Q     13.900000   19.560000   17.460000
  Q     14.390000   19.200000   16.860000
  Q     17.510000    6.460000    4.800000
  Q     19.010000    5.860000    4.600000
  Q     18.350000    6.230000    5.020000
  Q      1.360000    9.700000   12.000000
  Q      2.350000    8.650000   11.980000
  Q      1.710000    9.040000   12.280000
  Q      8.770000   16.290000   19.460000
  Q      9.670000   15.390000   20.380000
  Q      9.430000   15.750000   19.640000
  Q      5.580000   11.640000   13.170000
  Q      4.140000   11.690000   12.450000
  Q      4.910000   11.370000   12.680000
  Q      4.770000    8.810000   11.910000
  Q      4.590000    7.330000   11.700000
  Q      4.450000    8.050000   12.050000
  Q      4.290000   16.000000   12.170000
  Q      3.340000   17.000000   11.620000
  Q      4.050000   16.750000   11.990000
  Q     13.780000    7.910000   18.020000
  Q     13.170000    9.340000   18.670000
  Q     13.240000    8.460000   18.480000
  Q     13.120000    6.090000    8.910000
  Q     13.440000    4.790000    8.220000
  Q     13.410000    5.310000    8.870000
  Q      7.940000   13.090000   18.550000
  Q      7.260000   11.740000   18.170000
  Q      7.480000   12.390000   18.690000
  Q     15.260000    9.700000   19.640000
  Q     16.240000    8.420000   20.200000
  Q     15.960000    9.140000   19.680000
  Q      8.620000    7.370000    2.820000
  Q      7.510000    8.470000    3.030000
  Q      8.060000    7.990000    2.590000
  Q      8.190000    6.280000   21.130000
  Q      9.200000    5.810000   19.950000
  Q      8.830000    5.830000   20.720000
  Q     15.310000    3.010000   11.930000
  Q     15.120000    3.980000   13.130000
  Q     15.450000    3.290000   12.730000
  Q     19.520000   13.720000   16.600000
  Q     19.000000   15.240000   16.650000
  Q     18.920000   14.360000   16.630000
  Q      8.830000    4.110000   13.610000
  Q      8.280000    2.810000   13.900000
  Q      8.250000    3.550000   13.530000
  Q     13.550000   13.970000    2.300000
  Q     13.610000   15.230000    1.320000
  Q     13.290000   14.510000    1.690000
  Q     15.870000   19.640000    9.530000
  Q     16.140000   18.080000    9.350000
  Q     16.240000   18.890000    9.680000
  Q     16.660000   10.830000    4.050000
  Q     15.630000    9.770000    4.620000
  Q     15.960000   10.350000    4.100000
  Q     14.630000   11.830000    3.360000
  Q     14.880000   13.260000    4.080000
  Q     14.560000   12.690000    3.470000
  Q      6.960000   17.280000    4.760000
  Q      6.720000   18.470000    3.730000
  Q      6.940000   18.090000    4.490000
  Q      2.840000   12.070000    4.800000
  Q      1.750000   11.180000    4.660000
  Q      2.270000   11.730000    4.360000
  Q     13.970000    6.400000   16.190000
  Q     15.410000    6.110000   16.100000
  Q     14.730000    6.340000   16.480000
  Q      9.030000   19.350000   15.730000
  Q     10.410000   18.670000   16.120000
  Q      9.790000   18.990000   15.570000
  Q     11.530000    2.980000    4.360000
  Q     10.750000    1.830000    5.000000
  Q     11.350000    2.190000    4.540000
  Q      7.210000    2.030000    4.220000
  Q      7.480000    3.520000    4.080000
  Q      7.130000    2.840000    4.430000
  Q     14.670000   16.250000    4.490000
  Q     14.020000   16.590000    3.120000
  Q     14.100000   16.550000    3.970000
  Q     17.520000   12.110000   18.290000
  Q     17.410000   10.640000   18.720000
  Q     17.770000   11.310000   18.310000
  Q      3.320000    9.290000   15.080000
  Q      2.390000    9.620000   13.930000
  Q      2.700000    9.710000   14.700000
  Q     18.840000    3.290000   13.200000
  Q     17.310000    2.810000   13.200000
  Q     18.170000    2.770000   13.350000
  Q      4.590000    7.700000    8.730000
  Q      3.970000    8.800000    7.860000
  Q      4.570000    8.250000    8.110000
  Q     10.380000   17.700000    3.220000
  Q      9.190000   17.820000    4.110000
  Q      9.930000   18.030000    3.840000
  Q      3.340000    3.510000   12.960000
  Q      1.910000    3.070000   13.650000
  Q      2.580000    3.570000   13.360000
  Q     16.310000   18.640000    6.470000
  Q     15.070000   18.740000    7.380000
  Q     15.520000   18.840000    6.690000
  Q     17.680000   13.210000   13.230000
  Q     18.030000   13.350000   14.670000
  Q     18.240000   13.250000   13.860000
  Q     18.300000   13.780000    8.540000
  Q     17.510000   12.420000    8.520000
  Q     18.000000   13.020000    8.860000
  Q      8.510000   12.580000   16.460000
  Q      9.800000   13.190000   16.840000
  Q      8.990000   13.240000   16.620000
  Q     11.350000    5.270000    4.890000
  Q     12.410000    5.350000    3.810000
  Q     12.030000    5.020000    4.470000
  Q      9.550000   15.170000    4.030000
  Q      8.230000   15.250000    3.120000
  Q      8.750000   15.410000    3.790000
  Q      4.360000   16.290000   17.400000
  Q      2.910000   16.490000   17.390000
  Q      3.680000   16.590000   17.690000
  Q      5.990000   13.760000    5.630000
  Q      4.800000   14.470000    4.900000
  Q      5.190000   14.010000    5.510000
  Q      3.620000   12.860000    6.810000
  Q      2.090000   12.460000    7.020000
  Q      2.920000   12.340000    6.890000
  Q      9.530000    7.140000   16.000000
  Q      8.130000    6.490000   15.710000
  Q      8.810000    6.970000   15.520000
  Q     12.420000    2.360000   15.330000
  Q     11.090000    2.700000   14.460000
  Q     11.580000    2.470000   15.150000
  Q     12.600000   18.780000   14.640000
  Q     12.520000   17.200000   14.960000
  Q     12.900000   17.980000   14.880000
  Q      3.170000   16.130000    7.290000
  Q      1.710000   16.410000    7.030000
  Q      2.520000   16.410000    6.830000
  Q      6.350000    4.820000   16.770000
  Q      7.120000    5.650000   17.700000
  Q      7.020000    5.230000   16.990000
  Q     15.280000   12.720000   16.830000
  Q     14.040000   12.690000   15.850000
  Q     14.520000   12.410000   16.510000
  Q     12.610000    7.750000   20.230000
  Q     12.600000    8.720000   21.460000
  Q     12.690000    7.980000   21.070000
  Q      7.470000   13.530000    1.250000
  Q      7.440000   13.340000    2.720000
  Q      7.390000   13.800000    2.030000
  Q      8.530000    9.800000    1.700000
  Q      8.540000   11.130000    1.030000
  Q      8.890000   10.500000    1.450000
  Q     21.740000   14.370000   12.760000
  Q     20.490000   13.430000   12.560000
  Q     21.230000   13.780000   12.350000
  Q     10.170000   16.990000   17.100000
  Q     11.280000   17.460000   18.220000
  Q     10.680000   17.520000   17.570000
  Q     16.590000    8.670000   17.090000
  Q     17.180000    8.310000   15.730000
  Q     17.210000    8.590000   16.520000
  Q      6.680000   11.720000   21.980000
  Q      7.400000   11.960000   20.590000
  Q      7.340000   11.900000   21.460000
  Q     11.580000    9.330000    3.260000
  Q     12.300000    8.050000    3.130000
  Q     11.930000    8.650000    3.550000
  Q      4.470000   10.200000    0.510000
  Q      5.130000   10.400000    1.860000
  Q      4.860000   10.610000    1.100000
  Q     15.260000    5.870000    9.230000
  Q     16.540000    6.310000    9.980000
  Q     16.040000    6.260000    9.320000
  Q     10.200000   -0.070000   12.110000
  Q     10.200000    0.660000   13.490000
  Q     10.380000    0.580000   12.670000
  Q      1.570000   12.600000   12.160000
  Q      2.770000   12.720000   13.110000
  Q      2.390000   12.530000   12.380000
  Q     19.570000   11.480000    9.890000
  Q     19.720000   10.630000   11.120000
  Q     19.910000   10.870000   10.350000
  Q     13.080000   18.390000    4.960000
  Q     11.570000   18.220000    5.180000
  Q     12.340000   18.470000    5.360000
  Q      5.470000   15.610000    7.710000
  Q      5.120000   16.600000    8.870000
  Q      5.070000   15.860000    8.430000
  Q      5.650000   10.030000    6.550000
  Q      4.460000   10.970000    6.280000
  Q      5.130000   10.490000    6.070000
  Q     12.090000   12.080000   21.250000
  Q     13.070000   13.120000   21.780000
  Q     12.820000   12.340000   21.600000
  Q     16.660000    6.610000   12.190000
  Q     18.150000    6.590000   12.190000
  Q     17.400000    6.550000   11.840000
  Q      1.580000    9.350000    8.760000
  Q      1.500000    8.000000    7.940000
  Q      1.760000    8.800000    8.130000
  Q      8.870000   20.780000   10.580000
  Q      9.940000   19.830000   10.190000
  Q      9.570000   20.340000   10.720000
  Q      1.490000    7.550000   13.680000
  Q      1.840000    6.180000   13.060000
  Q      1.710000    6.740000   13.680000
  Q     16.940000   16.900000   16.750000
  Q     15.890000   17.720000   17.390000
  Q     16.540000   17.210000   17.420000
  Q     12.680000    4.100000   10.260000
  Q     11.510000    3.390000   10.850000
  Q     12.160000    3.900000   10.880000
  Q     10.900000   18.360000    9.440000
  Q     10.650000   19.010000    8.120000
  Q     10.420000   18.680000    8.860000
  Q     17.950000   15.660000    7.930000
  Q     18.750000   15.100000    6.590000
  Q     18.600000   15.280000    7.450000
  Q     16.250000   17.770000    4.620000
  Q     17.060000   16.960000    5.590000
  Q     16.730000   17.130000    4.860000
  Q     14.550000    8.670000   13.920000
  Q     14.950000    7.080000   13.950000
  Q     14.750000    7.850000   13.610000
  Q      2.550000   12.800000   18.010000
  Q      3.910000   13.190000   18.650000
  Q      3.380000   12.780000   18.140000
  Q     15.650000   19.110000   12.800000
  Q     15.860000   18.170000   11.700000
  Q     15.870000   18.390000   12.510000
  Q      9.300000    4.410000    2.570000
  Q      8.010000    3.800000    1.940000
  Q      8.460000    4.250000    2.500000
  Q     18.800000    7.460000   17.260000
  Q     19.120000    6.310000   18.340000
  Q     19.260000    6.870000   17.690000
  Q     20.200000   15.850000   13.160000
  Q     19.060000   14.990000   13.810000
  Q     19.640000   15.640000   13.770000
  Q      8.630000    4.090000   16.810000
  Q      9.780000    3.700000   17.840000
  Q      9.180000    3.560000   17.210000
  Q     17.490000    6.420000   14.760000
  Q     17.100000    4.880000   15.130000
  Q     17.000000    5.700000   14.940000
  Q      8.390000    3.840000    9.610000
  Q      8.170000    3.720000    8.140000
  Q      8.450000    4.100000    8.810000
  Q      7.130000    3.020000    6.330000
  Q      7.110000    1.800000    7.270000
  Q      7.040000    2.640000    7.080000
  Q      5.490000   14.470000    2.880000
  Q      3.980000   14.550000    2.610000
  Q      4.700000   14.710000    3.020000

----------------------------
CARTESIAN COORDINATES (A.U.)
----------------------------
  NO LB      ZA    FRAG     MASS         X           Y           Z
   0 C     6.0000    0    12.011   19.369693   21.561775   23.905036
   1 H     1.0000    0     1.008   17.914604   21.996412   22.563330
   2 H     1.0000    0     1.008   20.201172   23.394810   24.320775
   3 C     6.0000    0    12.011   21.183830   19.350796   22.846789
   4 H     1.0000    0     1.008   22.771200   18.878364   24.150700
   5 H     1.0000    0     1.008   20.106686   17.498864   22.922378
   6 C     6.0000    0    12.011   22.260974   19.879919   20.314556
   7 H     1.0000    0     1.008   23.394810   18.368138   19.558665
   8 H     1.0000    0     1.008   23.621577   21.486186   20.579118
   9 C     6.0000    0    12.011   20.522426   20.635809   18.368138
  10 H     1.0000    0     1.008   19.350796   22.223179   18.670494
  11 H     1.0000    0     1.008   19.294104   19.124028   17.744528
  12 O     8.0000    0    15.999   21.883029   21.127138   16.005980
  13 H     1.0000    0     1.008   20.598015   21.259419   14.758761
  14 O     8.0000    0    15.999   17.990193   20.824782   26.116015
  15 H     1.0000    0     1.008   17.272097   19.180720   25.945940
  16 O     8.0000    0    15.999   14.853247   22.393255   19.294104
  17 H     1.0000    0     1.008   13.662720   21.051549   19.426385
  18 H     1.0000    0     1.008   14.343021   23.886138   20.238967
  19 O     8.0000    0    15.999   21.523981   19.445282   30.122235
  20 H     1.0000    0     1.008   21.013755   17.857912   30.840331
  21 H     1.0000    0     1.008   20.654707   19.672049   28.534865
  22 O     8.0000    0    15.999   26.248296   24.037316   17.385480
  23 H     1.0000    0     1.008   24.585337   23.262529   17.442172
  24 H     1.0000    0     1.008   26.985289   24.245186   18.991748
  25 O     8.0000    0    15.999   21.788542   27.911255   22.279871
  26 H     1.0000    0     1.008   21.013755   28.062433   20.560220
  27 H     1.0000    0     1.008   20.427940   27.854563   23.583782
  28 O     8.0000    0    15.999   18.368138   20.919268   11.772994
  29 H     1.0000    0     1.008   19.804330   21.788542   11.111590
  30 H     1.0000    0     1.008   17.177611   22.223179   12.226528
  31 O     8.0000    0    15.999   16.062672   24.755412   14.343021
  32 H     1.0000    0     1.008   15.514652   23.848344   15.911494
  33 H     1.0000    0     1.008   17.442172   25.586892   15.174501
  34 O     8.0000    0    15.999   18.027987   14.210741   18.368138
  35 H     1.0000    0     1.008   16.761871   15.098912   17.234302
  36 H     1.0000    0     1.008   17.120919   14.021768   19.974405
  37 O     8.0000    0    15.999   21.542878   23.621577   33.164694
  38 H     1.0000    0     1.008   22.752303   25.019974   33.032413
  39 H     1.0000    0     1.008   21.372803   22.506638   31.709605
  40 O     8.0000    0    15.999   19.766535   15.098912   32.352111
  41 H     1.0000    0     1.008   18.387035   15.760316   33.315872
  42 H     1.0000    0     1.008   21.429494   14.966631   33.202488
  43 O     8.0000    0    15.999   25.227844   31.577324   22.544433
  44 H     1.0000    0     1.008   25.775864   32.352111   24.075111
  45 H     1.0000    0     1.008   23.640474   30.651358   22.733405
  46 O     8.0000    0    15.999   22.487741   13.965076   16.005980
  47 H     1.0000    0     1.008   20.938166   14.305227   16.875254
  48 H     1.0000    0     1.008   23.243631   15.609138   15.930391
  49 O     8.0000    0    15.999   25.908145   17.857912   14.777658
  50 H     1.0000    0     1.008   26.834111   18.046885   16.327234
  51 H     1.0000    0     1.008   24.660926   19.180720   14.928836
  52 O     8.0000    0    15.999   11.470638   17.366583   19.105131
  53 H     1.0000    0     1.008   10.128932   18.519316   18.916159
  54 H     1.0000    0     1.008   11.943069   17.120919   17.328789
  55 O     8.0000    0    15.999   13.738309   17.423275   27.533310
  56 H     1.0000    0     1.008   13.606028   16.913049   25.794762
  57 H     1.0000    0     1.008   14.626480   16.024878   28.364789
  58 O     8.0000    0    15.999   14.966631   20.465734   31.539529
  59 H     1.0000    0     1.008   14.380816   19.672049   30.084440
  60 H     1.0000    0     1.008   15.231193   19.199618   32.862337
  61 O     8.0000    0    15.999   25.435714   24.623132   26.720728
  62 H     1.0000    0     1.008   26.040426   25.038871   25.057769
  63 H     1.0000    0     1.008   24.282981   26.078221   26.928597
  64 O     8.0000    0    15.999   27.041981   25.832556   21.864131
  65 H     1.0000    0     1.008   28.723837   26.002632   22.355460
  66 H     1.0000    0     1.008   26.286091   27.627796   22.034207
  67 O     8.0000    0    15.999   22.544433   23.224734    9.750987
  68 H     1.0000    0     1.008   24.056214   22.525536   10.450186
  69 H     1.0000    0     1.008   22.525536   22.827892    7.955747
  70 O     8.0000    0    15.999   22.223179   12.906829   21.826337
  71 H     1.0000    0     1.008   21.316111   13.946179   20.692501
  72 H     1.0000    0     1.008   22.846789   11.527329   20.805885
  73 O     8.0000    0    15.999   18.009090   27.741180   25.624686
  74 H     1.0000    0     1.008   17.706734   26.853008   27.193159
  75 H     1.0000    0     1.008   16.761871   28.931707   25.719173
  76 O     8.0000    0    15.999   27.382132   27.665591   14.380816
  77 H     1.0000    0     1.008   26.002632   28.837221   14.324124
  78 H     1.0000    0     1.008   26.966392   26.512858   15.703624
  79 O     8.0000    0    15.999   14.834350   17.763426   14.229638
  80 H     1.0000    0     1.008   16.232747   18.481522   13.322569
  81 H     1.0000    0     1.008   14.909939   16.043775   13.776104
  82 O     8.0000    0    15.999   13.946179   22.846789    8.069131
  83 H     1.0000    0     1.008   15.401268   21.883029    8.352590
  84 H     1.0000    0     1.008   12.509987   22.185385    8.976199
  85 O     8.0000    0    15.999   13.114699   27.552207   20.295659
  86 H     1.0000    0     1.008   13.587131   28.364789   21.826337
  87 H     1.0000    0     1.008   11.413946   26.928597   20.390145
  88 O     8.0000    0    15.999   13.776104   23.999522   26.588447
  89 H     1.0000    0     1.008   14.210741   25.265638   25.322330
  90 H     1.0000    0     1.008   15.155604   22.827892   26.512858
  91 O     8.0000    0    15.999   26.002632   18.953953   27.684488
  92 H     1.0000    0     1.008   24.906590   18.500419   29.158474
  93 H     1.0000    0     1.008   25.397919   20.616912   27.306543
  94 O     8.0000    0    15.999   19.577563   28.553762   16.705179
  95 H     1.0000    0     1.008   20.730296   29.196269   15.495754
  96 H     1.0000    0     1.008   18.103576   29.630906   16.629590
  97 Q     0.6645    0     0.000    9.486425    9.902165   20.201172
  98 Q     0.6645    0     0.000    8.295898   10.355699   17.574453
  99 Q    -1.3290    0     0.000    8.636048   10.714747   19.048439
 100 Q     0.6645    0     0.000    1.833034   14.815453   31.652913
 101 Q     0.6645    0     0.000    2.645617   17.347686   30.481283
 102 Q    -1.3290    0     0.000    1.795240   16.440617   31.407248
 103 Q     0.6645    0     0.000   10.450186   11.848583   10.034446
 104 Q     0.6645    0     0.000    9.845473   13.209186   12.491090
 105 Q    -1.3290    0     0.000   10.374596   12.018658   11.584021
 106 Q     0.6645    0     0.000   25.076666   12.604473    2.759000
 107 Q     0.6645    0     0.000   25.927043   10.412391    4.554240
 108 Q    -1.3290    0     0.000   25.114460   11.697405    4.138500
 109 Q     0.6645    0     0.000   36.018180   12.018658   13.341467
 110 Q     0.6645    0     0.000   37.359886   11.697405   16.081569
 111 Q    -1.3290    0     0.000   36.981940   12.339912   14.626480
 112 Q     0.6645    0     0.000   22.449946   40.270064   26.815214
 113 Q     0.6645    0     0.000   20.843679   38.153571   27.665591
 114 Q    -1.3290    0     0.000   22.034207   38.758283   26.909700
 115 Q     0.6645    0     0.000    7.804569   11.886377    7.256548
 116 Q     0.6645    0     0.000    9.826576   11.432843    5.234541
 117 Q    -1.3290    0     0.000    9.221864   12.169836    6.462863
 118 Q     0.6645    0     0.000    0.510226   20.919268   19.180720
 119 Q     0.6645    0     0.000    3.477096   21.448392   18.859467
 120 Q    -1.3290    0     0.000    2.116493   20.654707   18.972850
 121 Q     0.6645    0     0.000   29.989954   10.374596   36.074872
 122 Q     0.6645    0     0.000   28.383687    9.675398   33.769406
 123 Q    -1.3290    0     0.000   29.271858    9.316350   35.016625
 124 Q     0.6645    0     0.000   10.204521   18.594905    7.540007
 125 Q     0.6645    0     0.000   10.563569   15.930391    6.330583
 126 Q    -1.3290    0     0.000   10.733644   17.536659    6.443966
 127 Q     0.6645    0     0.000   13.303672   15.930391   21.694056
 128 Q     0.6645    0     0.000   13.643823   13.549336   23.130248
 129 Q    -1.3290    0     0.000   14.116254   14.928836   22.582227
 130 Q     0.6645    0     0.000   20.446837   29.460830   28.761632
 131 Q     0.6645    0     0.000   22.884583   28.875015   30.443488
 132 Q    -1.3290    0     0.000   21.977515   29.082885   29.082885
 133 Q     0.6645    0     0.000   11.262768   31.898577   29.687598
 134 Q     0.6645    0     0.000   11.168281   29.290755   30.708050
 135 Q    -1.3290    0     0.000   11.300562   30.821433   30.840331
 136 Q     0.6645    0     0.000   18.783878    2.494438   19.709844
 137 Q     0.6645    0     0.000   18.821672    3.401507   17.177611
 138 Q    -1.3290    0     0.000   19.464179    3.155843   18.538213
 139 Q     0.6645    0     0.000    8.825021    8.598254   13.568234
 140 Q     0.6645    0     0.000   10.431288    6.765220   14.985528
 141 Q    -1.3290    0     0.000    9.108480    7.540007   14.739864
 142 Q     0.6645    0     0.000   34.430810   16.554001   25.945940
 143 Q     0.6645    0     0.000   36.603995   14.720967   27.004186
 144 Q    -1.3290    0     0.000   35.073317   15.212295   26.664036
 145 Q     0.6645    0     0.000   11.961966    5.442411   20.730296
 146 Q     0.6645    0     0.000   14.305227    5.442411   22.185385
 147 Q    -1.3290    0     0.000   13.435953    4.988877   20.975960
 148 Q     0.6645    0     0.000   26.361680   16.799665   11.867480
 149 Q     0.6645    0     0.000   25.171152   16.724076    9.297453
 150 Q    -1.3290    0     0.000   26.361680   16.516206   10.280110
 151 Q     0.6645    0     0.000   24.793207   28.780529   34.260735
 152 Q     0.6645    0     0.000   26.456166   26.966392   32.616673
 153 Q    -1.3290    0     0.000   25.152255   27.797871   33.070207
 154 Q     0.6645    0     0.000   28.704940    8.598254    7.464418
 155 Q     0.6645    0     0.000   29.423036    8.144720    4.837699
 156 Q    -1.3290    0     0.000   28.818324    7.766774    6.179404
 157 Q     0.6645    0     0.000   20.068892   20.465734   38.172468
 158 Q     0.6645    0     0.000   20.598015   22.638919   36.471714
 159 Q    -1.3290    0     0.000   20.371248   21.939720   37.870112
 160 Q     0.6645    0     0.000   17.007535    3.703863   29.725392
 161 Q     0.6645    0     0.000   14.361919    2.588925   28.931707
 162 Q    -1.3290    0     0.000   15.949289    2.834589   28.799426
 163 Q     0.6645    0     0.000   27.627796   19.785433    1.719651
 164 Q     0.6645    0     0.000   28.024639   18.897261    4.346370
 165 Q    -1.3290    0     0.000   27.438823   18.802775    2.891281
 166 Q     0.6645    0     0.000   20.635809   26.890803    1.719651
 167 Q     0.6645    0     0.000   19.048439   25.057769    0.113384
 168 Q    -1.3290    0     0.000   19.331898   26.380577    0.925966
 169 Q     0.6645    0     0.000   31.539529   32.975721   27.476618
 170 Q     0.6645    0     0.000   34.071762   31.482837   27.854563
 171 Q    -1.3290    0     0.000   32.730057   32.219831   28.270303
 172 Q     0.6645    0     0.000    8.088028    8.825021   30.292310
 173 Q     0.6645    0     0.000    7.010884    6.614041   31.445043
 174 Q    -1.3290    0     0.000    8.125822    7.691185   31.369454
 175 Q     0.6645    0     0.000   11.867480   29.876570   25.681378
 176 Q     0.6645    0     0.000   13.568234   32.087550   25.473508
 177 Q    -1.3290    0     0.000   13.284775   30.537974   25.605789
 178 Q     0.6645    0     0.000   38.059084   32.011961   20.560220
 179 Q     0.6645    0     0.000   39.438584   29.876570   20.163378
 180 Q    -1.3290    0     0.000   38.248057   30.556872   20.654707
 181 Q     0.6645    0     0.000   19.596460   13.927282    8.938405
 182 Q     0.6645    0     0.000   17.574453   12.377706   10.223418
 183 Q    -1.3290    0     0.000   18.405933   12.869035    8.995096
 184 Q     0.6645    0     0.000   32.163139   20.031097   14.097357
 185 Q     0.6645    0     0.000   29.763187   21.656261   14.475302
 186 Q    -1.3290    0     0.000   31.256070   21.391700   14.097357
 187 Q     0.6645    0     0.000   14.796556   29.139577   11.017103
 188 Q     0.6645    0     0.000   14.324124   27.665591   13.454850
 189 Q    -1.3290    0     0.000   13.965076   28.742734   12.302117
 190 Q     0.6645    0     0.000   33.240283   22.506638   11.036001
 191 Q     0.6645    0     0.000   35.867002   21.297214   10.072240
 192 Q    -1.3290    0     0.000   34.411913   22.072001    9.939959
 193 Q     0.6645    0     0.000   10.563569   13.303672    1.530678
 194 Q     0.6645    0     0.000   13.492645   14.097357    2.040904
 195 Q    -1.3290    0     0.000   12.113145   13.813898    1.152733
 196 Q     0.6645    0     0.000   23.640474    3.590480   17.366583
 197 Q     0.6645    0     0.000   25.945940    4.025117   15.552446
 198 Q    -1.3290    0     0.000   25.095563    3.325918   16.705179
 199 Q     0.6645    0     0.000    7.294343   24.812104   29.196269
 200 Q     0.6645    0     0.000    6.991987   22.185385   27.892358
 201 Q    -1.3290    0     0.000    6.595144   23.716063   28.156919
 202 Q     0.6645    0     0.000   16.724076   29.725392    1.473986
 203 Q     0.6645    0     0.000   16.950843   32.711159    1.644062
[...]
 344   Q   :   -0.013770104    0.278343961   -0.051320014
 345   Q   :   -0.139503970   -0.195722809   -0.104063356
 346   Q   :    0.152383753   -0.083700256    0.159721219
 347   Q   :    0.157399225    0.081699428    0.233649355
 348   Q   :   -0.257614449   -0.049684592   -0.021141714
 349   Q   :    0.114183952   -0.028141016   -0.199080352
 350   Q   :   -0.067497732    0.130614136    0.263781495
 351   Q   :    0.119742025   -0.266225986    0.005366954
 352   Q   :   -0.046381607    0.131928101   -0.262483495
 353   Q   :   -0.172305503    0.221569268   -0.000630467
 354   Q   :    0.126481132   -0.117700607    0.236528817
 355   Q   :    0.045008486   -0.098836074   -0.225743262
 356   Q   :    0.059036003   -0.244462607    0.015796770
 357   Q   :   -0.183652655    0.148349098    0.187402351
 358   Q   :    0.119471486    0.109063719   -0.201966192
 359   Q   :   -0.223368659   -0.026448965   -0.180151435
 360   Q   :    0.093417536    0.222615021    0.155579495
 361   Q   :    0.132353162   -0.194119314    0.023389910
 362   Q   :    0.220453024   -0.112834967   -0.103843323
 363   Q   :   -0.135084247   -0.115213476    0.201881459
 364   Q   :   -0.068612092    0.220531723   -0.091646927
 365   Q   :    0.211767296    0.215059473   -0.054450090
 366   Q   :   -0.135831457   -0.025602525    0.200497865
 367   Q   :   -0.062865038   -0.190693741   -0.141143937
 368   Q   :   -0.093585252    0.065550222    0.245385761
 369   Q   :    0.070558857    0.201436519   -0.215828825
 370   Q   :    0.026837446   -0.266237662   -0.030560915
 371   Q   :   -0.220341458   -0.031695519   -0.123947376
 372   Q   :    0.138644780   -0.138692567    0.152537865
 373   Q   :    0.091089786    0.162691884   -0.024690978
 374   Q   :   -0.040481289   -0.022527186   -0.274368766
 375   Q   :    0.281247782    0.095228299    0.098242932
 376   Q   :   -0.232385309   -0.076283529    0.182691203
 377   Q   :    0.196065936   -0.052023567    0.211056141
 378   Q   :   -0.184934144    0.215253694   -0.023008435
 379   Q   :   -0.004943614   -0.161718826   -0.190646039
 380   Q   :   -0.094057084   -0.124625137   -0.235649966
 381   Q   :   -0.181644649    0.117666455    0.196644577
 382   Q   :    0.278884048    0.020627121    0.044765806
 383   Q   :   -0.211604034    0.049346513   -0.060587404
 384   Q   :    0.208445196   -0.124381824   -0.147063632
 385   Q   :    0.025064095    0.077334272    0.199614482
 386   Q   :   -0.132077714    0.273923631   -0.119358385
 387   Q   :    0.241106196   -0.131258399   -0.128301711
 388   Q   :   -0.121652207   -0.141126916    0.232355236
 389   Q   :   -0.191106513    0.151905356   -0.030940589
 390   Q   :    0.079043975   -0.107805636    0.257525151
 391   Q   :    0.111943118   -0.053197695   -0.226672568
 392   Q   :    0.195291838    0.093128676    0.154096129
 393   Q   :   -0.234934907    0.113134214   -0.059421536
 394   Q   :    0.042785460   -0.208829201   -0.092273945
 395   Q   :    0.118502152    0.260962670   -0.062455019
 396   Q   :    0.060548805   -0.272023659   -0.141235615
 397   Q   :   -0.174677524    0.009567578    0.208377303
 398   Q   :    0.084918760   -0.287307639    0.056831791
 399   Q   :   -0.251830689    0.070178619   -0.131955157
 400   Q   :    0.146560627    0.219109556    0.069527038
 401   Q   :    0.147640873   -0.148058491   -0.133942964
 402   Q   :   -0.021317422    0.225797358    0.040637600
 403   Q   :   -0.121100704   -0.079471626    0.085380347
 404   Q   :   -0.092611340    0.263900299    0.008492073
 405   Q   :    0.001743037   -0.166868547   -0.226632619
 406   Q   :    0.091482587   -0.095741565    0.218046948
 407   Q   :    0.148963587    0.230191789   -0.052339397
 408   Q   :   -0.070694144   -0.205235481   -0.163929090
 409   Q   :   -0.078411722   -0.019639171    0.215805992
 410   Q   :   -0.197151036    0.153072203   -0.003540263
 411   Q   :    0.069889316   -0.169148779    0.139631395
 412   Q   :    0.134857766    0.014711089   -0.126643686
 413   Q   :    0.165226031   -0.191589207    0.072430424
 414   Q   :   -0.174613906    0.147158053    0.152428799
 415   Q   :    0.020615532    0.037318945   -0.217517160
 416   Q   :   -0.204420616    0.155913518    0.113455564
 417   Q   :    0.107559795    0.012588559   -0.263213994
 418   Q   :    0.089190283   -0.168186706    0.151537832
 419   Q   :   -0.047166023   -0.075608416   -0.257887184
 420   Q   :   -0.101985345    0.216868887    0.118035063
 421   Q   :    0.145109712   -0.138370174    0.134595841
 422   Q   :    0.191930042   -0.187665143   -0.009500600
 423   Q   :    0.034470019    0.259693071    0.006549447
 424   Q   :   -0.210454703   -0.066382898    0.005268361
 425   Q   :    0.220334141    0.195845196    0.043366506
 426   Q   :    0.022158976   -0.246847292    0.125397096
 427   Q   :   -0.242161192    0.055505197   -0.163193113
 428   Q   :    0.089499613   -0.158522401    0.193193477
 429   Q   :    0.114661763    0.237821805   -0.107767270
 430   Q   :   -0.205858866   -0.070063774   -0.087764312
 431   Q   :   -0.146944637    0.254588180   -0.063556190
 432   Q   :   -0.048316417   -0.212176195   -0.110411765
 433   Q   :    0.195342238   -0.023803918    0.167593283
 434   Q   :    0.222946864    0.155487768   -0.017446039
 435   Q   :   -0.099617719   -0.190842137    0.177286378
 436   Q   :   -0.110435604    0.030436204   -0.154320151
 437   Q   :    0.023460018   -0.263813533   -0.042319144
 438   Q   :    0.082513661    0.145988616    0.156781138
 439   Q   :   -0.116441377    0.113857232   -0.121267121
 440   Q   :    0.006258452   -0.278369878    0.078871577
 441   Q   :   -0.069574636    0.105556946   -0.244021938
 442   Q   :    0.059633176    0.176448686    0.166617986
 443   Q   :    0.227842554    0.124635840    0.199853239
 444   Q   :   -0.195347635   -0.214583466    0.142344529
 445   Q   :   -0.031857954    0.089150769   -0.347035047
 446   Q   :   -0.279907876    0.029758558   -0.120826000
 447   Q   :    0.238192449   -0.086476928   -0.152631667
 448   Q   :    0.039135109    0.068322268    0.270153413
 449   Q   :   -0.251279316    0.122296079    0.060075701
 450   Q   :    0.169734485   -0.073002295    0.145216407
 451   Q   :    0.077398380   -0.047076148   -0.206487307
 452   Q   :    0.041006158    0.284949360   -0.057341898
 453   Q   :   -0.232317965   -0.115901150    0.171509125
 454   Q   :    0.188114116   -0.177622767   -0.114448356
 455   Q   :    0.039794537   -0.284892203   -0.083419445
 456   Q   :    0.119780963    0.215497912   -0.117571032
 457   Q   :   -0.168369508    0.062166467    0.196323522
 458   Q   :    0.209518855   -0.110737667    0.176907383
 459   Q   :   -0.015726825    0.008141943   -0.291899785
 460   Q   :   -0.192457538    0.102424706    0.108999381
 461   Q   :   -0.107536429    0.284559000   -0.000316209
 462   Q   :   -0.126602918   -0.194234923    0.133257540
 463   Q   :    0.237714658   -0.088118704   -0.134563971
 464   Q   :    0.207361595   -0.148843425    0.122781909
 465   Q   :   -0.096095134   -0.036758639   -0.259064774
 466   Q   :   -0.112286224    0.192611420    0.136025677
 467   Q   :    0.217614900    0.187459090   -0.055717269
 468   Q   :   -0.247772674    0.023117873   -0.047887661
 469   Q   :    0.044091457   -0.214317022    0.106530590
 470   Q   :   -0.006311303   -0.197072021    0.220478138
 471   Q   :   -0.196111044    0.182290485   -0.075536275
 472   Q   :    0.201835919    0.022895711   -0.142496856
 473   Q   :    0.157719860   -0.129581541   -0.231428783
 474   Q   :   -0.275068436   -0.091817353    0.090282672
 475   Q   :    0.114645781    0.223595126    0.135138168
 476   Q   :    0.236320986   -0.030242057   -0.128048099
 477   Q   :   -0.197936159   -0.161912939    0.081313549
 478   Q   :   -0.041916324    0.186048953    0.062697470
 479   Q   :    0.281555127   -0.083579170   -0.067514277
 480   Q   :   -0.151615972   -0.044721178    0.267363498
 481   Q   :   -0.132601238    0.128652800   -0.197641834
 482   Q   :   -0.202274786   -0.007716544   -0.199824441
 483   Q   :   -0.088770870    0.040837001    0.268708341
 484   Q   :    0.284255582   -0.039513394   -0.064311925
 485   Q   :    0.072654363    0.218942086   -0.095103942
 486   Q   :   -0.162721004   -0.191602147   -0.111872157
 487   Q   :    0.090580573   -0.025402929    0.221031902
 488   Q   :   -0.155902714   -0.229992432   -0.060221213
 489   Q   :    0.262884173   -0.024481000    0.059214476
 490   Q   :   -0.113535516    0.250712396   -0.005778382
 491   Q   :   -0.236689787    0.092237975    0.132444376
 492   Q   :    0.125053143    0.121987368   -0.236448619
 493   Q   :    0.117533913   -0.211405214    0.104561288
 494   Q   :    0.245039245   -0.084330549    0.063714224
 495   Q   :   -0.152839427   -0.052441874   -0.205197333
 496   Q   :   -0.091095079    0.136394681    0.136303345
 497   Q   :    0.253800201   -0.139377893   -0.129825551
 498   Q   :   -0.282263920   -0.045829189   -0.132588845
 499   Q   :    0.018392710    0.184813953    0.263826848
 500   Q   :    0.271800241   -0.093451671    0.031239761
 501   Q   :   -0.115687176    0.142704014   -0.183625619
 502   Q   :   -0.150257503   -0.050357247    0.156935521
 503   Q   :    0.196565283    0.151720078   -0.015685326
 504   Q   :   -0.284385740    0.050897533    0.050055799
 505   Q   :    0.072876251   -0.200018235   -0.026056914
 506   Q   :    0.191618500    0.034839484    0.137965974
 507   Q   :   -0.214295440   -0.150334852    0.068395400
 508   Q   :    0.023764921    0.110733304   -0.215973664
 509   Q   :    0.256066657   -0.019585589    0.050094185
 510   Q   :   -0.145763502    0.073254082   -0.220122135
 511   Q   :   -0.123665373   -0.059074243    0.171836590
 512   Q   :   -0.090958866    0.217334730   -0.063042517
 513   Q   :   -0.125856594   -0.229221633    0.018085582
 514   Q   :    0.216991413    0.003763607    0.044361559
 515   Q   :    0.202009307   -0.105573021    0.177487669
 516   Q   :   -0.296253159   -0.012804708    0.097226893
 517   Q   :    0.089726275    0.118543648   -0.277108341
 518   Q   :   -0.251205922   -0.148075842   -0.070835725
 519   Q   :    0.030221902    0.146992810    0.252653972
 520   Q   :    0.216915555    0.002406515   -0.180516315
 521   Q   :    0.218576227    0.092241750    0.089185067
 522   Q   :   -0.144001428    0.097863469   -0.193490794
 523   Q   :   -0.080257341   -0.196641018    0.107397662
 524   Q   :   -0.034195452   -0.063031649   -0.247348276
 525   Q   :   -0.039894993    0.271298932    0.126075103
 526   Q   :    0.066803250   -0.212397056    0.133787394
 527   Q   :    0.034620986   -0.122088584   -0.281698789
 528   Q   :    0.021052839   -0.167904009    0.225515258
 529   Q   :   -0.052301745    0.287486967    0.036625066
 530   Q   :   -0.146323616   -0.236384507    0.081686766
 531   Q   :   -0.135391122    0.227967582   -0.153048027
 532   Q   :    0.274482391    0.009063427    0.066737715
 533   Q   :    0.148118289    0.190705129    0.138282342
 534   Q   :   -0.255967511   -0.109715133    0.087950635
 535   Q   :    0.107160270   -0.082575445   -0.229565555
 536   Q   :   -0.139161782   -0.164349205   -0.141513794
 537   Q   :    0.175910469   -0.025038849    0.190245423
 538   Q   :   -0.032342038    0.184508046   -0.033786569
 539   Q   :   -0.223008648    0.021329596    0.177577158
 540   Q   :   -0.027173586   -0.101668878   -0.272543457
 541   Q   :    0.234967886    0.083887213    0.097816349
 542   Q   :   -0.237063440   -0.067013493    0.163951289
 543   Q   :   -0.004027573    0.004675643   -0.249943710
 544   Q   :    0.239312400    0.058918122    0.097566066
 545   Q   :   -0.126111013    0.243257898   -0.118153306
 546   Q   :    0.131775680   -0.210013863   -0.168822743
 547   Q   :   -0.012822862   -0.034219289    0.279739077
 548   Q   :   -0.155999526   -0.176501799   -0.223316679
 549   Q   :    0.085190365   -0.082774246    0.261680253
 550   Q   :    0.064448757    0.264545549   -0.043884566
 551   Q   :   -0.219952583   -0.112927987   -0.013286272
 552   Q   :    0.163429468    0.017059376    0.237850190
 553   Q   :    0.058296344    0.097188276   -0.228285529
 554   Q   :   -0.066207675   -0.206414677   -0.168471334
 555   Q   :   -0.066378042    0.013690441    0.276701646
 556   Q   :    0.128040563    0.191033604   -0.110102861
 557   Q   :   -0.282737660    0.030766501   -0.068261180
 558   Q   :    0.119280125    0.067334735    0.231684528
 559   Q   :    0.155135303   -0.095249596   -0.177942649
 560   Q   :   -0.136053455    0.210549643   -0.149061169
 561   Q   :   -0.087680410   -0.076369257    0.265360801
 562   Q   :    0.231042862   -0.132917150   -0.122750816
 563   Q   :    0.247047489   -0.034239340   -0.145239913
 564   Q   :   -0.261878200   -0.102959910   -0.066845332
 565   Q   :    0.018985364    0.149127783    0.209261558
 566   Q   :    0.124765647   -0.066834916   -0.220195434
 567   Q   :    0.012088772    0.229480906    0.126873580
 568   Q   :   -0.128773739   -0.155188563    0.083300944
 569   Q   :    0.163864308   -0.152036793    0.172964291
 570   Q   :   -0.220184397    0.153213418    0.086360597
 571   Q   :    0.053659006   -0.003368126   -0.251589198
 572   Q   :   -0.224496540   -0.069008522   -0.106087849
 573   Q   :    0.076842280    0.287642452    0.055991264
 574   Q   :    0.157344304   -0.209934948    0.073372585
 575   Q   :   -0.272778473    0.026112816    0.141481796
 576   Q   :    0.269104755    0.013338199    0.141172241
 577   Q   :    0.011783133   -0.042240240   -0.276954339
 578   Q   :   -0.061853842    0.166728367    0.205648345
 579   Q   :   -0.091579962   -0.262932027   -0.052685810
 580   Q   :    0.148041061    0.088229830   -0.159198108
 581   Q   :   -0.250753451    0.147245873   -0.063748879
 582   Q   :    0.121892096   -0.178204086   -0.195057254
 583   Q   :    0.135335905    0.041801259    0.266022884
 584   Q   :   -0.075336497    0.278489437   -0.002123231
 585   Q   :    0.047782792   -0.185066496   -0.205607727
 586   Q   :    0.019907944   -0.094175334    0.220630562
 587   Q   :    0.122131481   -0.110607790   -0.217194557
 588   Q   :   -0.237774343    0.173102629   -0.023814644
 589   Q   :    0.121274504   -0.063637824    0.257903084
 590   Q   :    0.165219052    0.053476830   -0.219131996
 591   Q   :   -0.234127892   -0.185201969   -0.028319539
 592   Q   :    0.061445027    0.119162951    0.252047470
 593   Q   :    0.179575905   -0.110028229    0.210458730
 594   Q   :    0.091326831    0.114117793   -0.246932847
 595   Q   :   -0.270259298   -0.007337323    0.027110173
 596   Q   :   -0.197174897    0.108828041    0.124708443
 597   Q   :    0.023339519   -0.038704804   -0.238795932
 598   Q   :    0.180700255   -0.059395175    0.112105883
 599   Q   :   -0.167254215    0.233778720   -0.065288174
 600   Q   :    0.113599455   -0.046127807    0.292631142
 601   Q   :    0.060128452   -0.183573914   -0.230062472
 602   Q   :   -0.044099537    0.207792770    0.091530826
 603   Q   :    0.063679270   -0.244193833    0.118847420
 604   Q   :   -0.015192438    0.035697376   -0.210226694
 605   Q   :   -0.292587808    0.010324600   -0.029072716
 606   Q   :    0.175292767    0.147786705    0.182329402
 607   Q   :    0.114531600   -0.157175289   -0.151100494
 608   Q   :   -0.096953717    0.298978955    0.098560217
 609   Q   :   -0.019289646   -0.060207850   -0.277502950
 610   Q   :    0.114172963   -0.239776905    0.178136482
 611   Q   :    0.276473831    0.039870161    0.009441622
 612   Q   :   -0.145695646   -0.163179072   -0.197036502
 613   Q   :   -0.124708789    0.128106679    0.179062513
 614   Q   :   -0.150685378    0.182259076   -0.133081335
 615   Q   :   -0.058249468   -0.178250502    0.213449533
 616   Q   :    0.216207180   -0.009364193   -0.077895194
 617   Q   :    0.191443095    0.061251899   -0.203900504
 618   Q   :   -0.171675975   -0.187468631    0.005741803
 619   Q   :   -0.007000890    0.135710484    0.201030639
 620   Q   :   -0.163518304    0.175051043   -0.123257688
 621   Q   :    0.171834609    0.052691537    0.190918337
 622   Q   :    0.004571184   -0.233674355   -0.068264717
 623   Q   :    0.140908844    0.198884369   -0.046321636
 624   Q   :    0.040569222   -0.280103447    0.066616470
 625   Q   :   -0.176767776    0.070300894   -0.020220672
 626   Q   :   -0.021953294   -0.100431549    0.265069482
 627   Q   :   -0.094153023   -0.148409600   -0.236533302
 628   Q   :    0.123034277    0.255155220   -0.019481396
 629   Q   :    0.039970170    0.117014377   -0.234738863
 630   Q   :    0.029893324   -0.274066459    0.049746221
 631   Q   :   -0.069020206    0.147469063    0.187469075
 632   Q   :    0.266239243   -0.093631599   -0.051604636
 633   Q   :   -0.245408340   -0.065030316   -0.151799445
 634   Q   :   -0.027163760    0.162095921    0.193983099

Difference to translation invariance:
           :   -0.0002780142   -0.0011475567   -0.0002975381

Difference to rotation invariance:
           :    0.0119036991    0.0014901585   -0.0169855708

Norm of the cartesian gradient     ...    6.3626027000
RMS gradient                       ...    0.1458913520
MAX gradient                       ...    0.3470350472

-------
TIMINGS
-------

Total SCF gradient time            ...      170.826 sec

One electron gradient       ....      22.224 sec  ( 13.0%)
RI-J Coulomb gradient       ....       9.113 sec  (  5.3%)
COSX gradient               ....     106.060 sec  ( 62.1%)
XC gradient                 ....      14.599 sec  (  8.5%)

Maximum memory used throughout the entire SCFGRAD-calculation: 694.3 MB

                            ***************************************
                            *     ORCA property calculations      *
                            ***************************************

                                    ---------------------
                                    Active property flags
                                    ---------------------
   (+) Dipole Moment


------------------------------------------------------------------------------
                       ORCA ELECTRIC PROPERTIES CALCULATION
------------------------------------------------------------------------------

Dipole Moment Calculation                       ... on
Quadrupole Moment Calculation                   ... off
Polarizability Calculation                      ... off
GBWName                                         ... final037.orca.gbw
Electron density                                ... final037.orca.scfp
The origin for moment calculation is the CENTER OF MASS  = (19.927008, 21.746668 20.959563)

-------------
DIPOLE MOMENT
-------------
                                X             Y             Z
Electronic contribution:     -0.85156       0.14868      -0.23379
Nuclear contribution   :    -15.91981       1.44373       0.33731
                        -----------------------------------------
Total Dipole Moment    :    -16.77137       1.59241       0.10352
                        -----------------------------------------
Magnitude (a.u.)       :     16.84711
Magnitude (Debye)      :     42.82196



--------------------
Rotational spectrum 
--------------------
 
Rotational constants in cm-1:     0.002533     0.001763     0.001587 
Rotational constants in MHz :    75.929260    52.859401    47.584165 

 Dipole components along the rotational axes: 
x,y,z [a.u.] :     0.086879   -10.118848    13.469469 
x,y,z [Debye]:     0.220828   -25.720068    34.236669 

 

Timings for individual modules:

Sum of individual times         ...      765.911 sec (=  12.765 min)
GTO integral calculation        ...       11.849 sec (=   0.197 min)   1.5 %
SCF iterations                  ...      579.045 sec (=   9.651 min)  75.6 %
SCF Gradient evaluation         ...      175.018 sec (=   2.917 min)  22.9 %
                             ****ORCA TERMINATED NORMALLY****
TOTAL RUN TIME: 0 days 0 hours 12 minutes 53 seconds 628 msec
