
                                 *****************
                                 * O   R   C   A *
                                 *****************

                                            #,                                       
                                            ###                                      
                                            ####                                     
                                            #####                                    
                                            ######                                   
                                           ########,                                 
                                     ,,################,,,,,                         
                               ,,#################################,,                 
                          ,,##########################################,,             
                       ,#########################################, ''#####,          
                    ,#############################################,,   '####,        
                  ,##################################################,,,,####,       
                ,###########''''           ''''###############################       
              ,#####''   ,,,,##########,,,,          '''####'''          '####       
            ,##' ,,,,###########################,,,                        '##       
           ' ,,###''''                  '''############,,,                           
         ,,##''                                '''############,,,,        ,,,,,,###''
      ,#''                                            '''#######################'''  
     '                                                          ''''####''''         
             ,#######,   #######,   ,#######,      ##                                
            ,#'     '#,  ##    ##  ,#'     '#,    #''#        ######   ,####,        
            ##       ##  ##   ,#'  ##            #'  '#       #        #'  '#        
            ##       ##  #######   ##           ,######,      #####,   #    #        
            '#,     ,#'  ##    ##  '#,     ,#' ,#      #,         ##   #,  ,#        
             '#######'   ##     ##  '#######'  #'      '#     #####' # '####'        



                  #######################################################
                  #                        -***-                        #
                  #          Department of theory and spectroscopy      #
                  #    Directorship and core code : Frank Neese         #
                  #        Max Planck Institute fuer Kohlenforschung    #
                  #                Kaiser Wilhelm Platz 1               #
                  #                 D-45470 Muelheim/Ruhr               #
                  #                      Germany                        #
                  #                                                     #
                  #                  All rights reserved                #
                  #                        -***-                        #
                  #######################################################


                         Program Version 5.0.3 -  RELEASE  -


 With contributions from (in alphabetic order):
   Daniel Aravena         : Magnetic Suceptibility
   Michael Atanasov       : Ab Initio Ligand Field Theory (pilot matlab implementation)
   Alexander A. Auer      : GIAO ZORA, VPT2 properties, NMR spectrum
   Ute Becker             : Parallelization
   Giovanni Bistoni       : ED, misc. LED, open-shell LED, HFLD
   Martin Brehm           : Molecular dynamics
   Dmytro Bykov           : SCF Hessian
   Vijay G. Chilkuri      : MRCI spin determinant printing, contributions to CSF-ICE
   Dipayan Datta          : RHF DLPNO-CCSD density
   Achintya Kumar Dutta   : EOM-CC, STEOM-CC
   Dmitry Ganyushin       : Spin-Orbit,Spin-Spin,Magnetic field MRCI
   Miquel Garcia          : C-PCM and meta-GGA Hessian, CC/C-PCM, Gaussian charge scheme
   Yang Guo               : DLPNO-NEVPT2, F12-NEVPT2, CIM, IAO-localization
   Andreas Hansen         : Spin unrestricted coupled pair/coupled cluster methods
   Benjamin Helmich-Paris : MC-RPA, TRAH-SCF, COSX integrals
   Lee Huntington         : MR-EOM, pCC
   Robert Izsak           : Overlap fitted RIJCOSX, COSX-SCS-MP3, EOM
   Marcus Kettner         : VPT2
   Christian Kollmar      : KDIIS, OOCD, Brueckner-CCSD(T), CCSD density, CASPT2, CASPT2-K
   Simone Kossmann        : Meta GGA functionals, TD-DFT gradient, OOMP2, MP2 Hessian
   Martin Krupicka        : Initial AUTO-CI
   Lucas Lang             : DCDCAS
   Marvin Lechner         : AUTO-CI (C++ implementation), FIC-MRCC
   Dagmar Lenk            : GEPOL surface, SMD
   Dimitrios Liakos       : Extrapolation schemes; Compound Job, initial MDCI parallelization
   Dimitrios Manganas     : Further ROCIS development; embedding schemes
   Dimitrios Pantazis     : SARC Basis sets
   Anastasios Papadopoulos: AUTO-CI, single reference methods and gradients
   Taras Petrenko         : DFT Hessian,TD-DFT gradient, ASA, ECA, R-Raman, ABS, FL, XAS/XES, NRVS
   Peter Pinski           : DLPNO-MP2, DLPNO-MP2 Gradient
   Christoph Reimann      : Effective Core Potentials
   Marius Retegan         : Local ZFS, SOC
   Christoph Riplinger    : Optimizer, TS searches, QM/MM, DLPNO-CCSD(T), (RO)-DLPNO pert. Triples
   Tobias Risthaus        : Range-separated hybrids, TD-DFT gradient, RPA, STAB
   Michael Roemelt        : Original ROCIS implementation
   Masaaki Saitow         : Open-shell DLPNO-CCSD energy and density
   Barbara Sandhoefer     : DKH picture change effects
   Avijit Sen             : IP-ROCIS
   Kantharuban Sivalingam : CASSCF convergence, NEVPT2, FIC-MRCI
   Bernardo de Souza      : ESD, SOC TD-DFT
   Georgi Stoychev        : AutoAux, RI-MP2 NMR, DLPNO-MP2 response
   Willem Van den Heuvel  : Paramagnetic NMR
   Boris Wezisla          : Elementary symmetry handling
   Frank Wennmohs         : Technical directorship


 We gratefully acknowledge several colleagues who have allowed us to
 interface, adapt or use parts of their codes:
   Stefan Grimme, W. Hujo, H. Kruse, P. Pracht,  : VdW corrections, initial TS optimization,
                  C. Bannwarth, S. Ehlert          DFT functionals, gCP, sTDA/sTD-DF
   Ed Valeev, F. Pavosevic, A. Kumar             : LibInt (2-el integral package), F12 methods
   Garnet Chan, S. Sharma, J. Yang, R. Olivares  : DMRG
   Ulf Ekstrom                                   : XCFun DFT Library
   Mihaly Kallay                                 : mrcc  (arbitrary order and MRCC methods)
   Jiri Pittner, Ondrej Demel                    : Mk-CCSD
   Frank Weinhold                                : gennbo (NPA and NBO analysis)
   Christopher J. Cramer and Donald G. Truhlar   : smd solvation model
   Lars Goerigk                                  : TD-DFT with DH, B97 family of functionals
   V. Asgeirsson, H. Jonsson                     : NEB implementation
   FAccTs GmbH                                   : IRC, NEB, NEB-TS, DLPNO-Multilevel, CI-OPT
                                                   MM, QMMM, 2- and 3-layer-ONIOM, Crystal-QMMM,
                                                   LR-CPCM, SF, NACMEs, symmetry and pop. for TD-DFT,
                                                   nearIR, NL-DFT gradient (VV10), updates on ESD,
                                                   ML-optimized integration grids
   S Lehtola, MJT Oliveira, MAL Marques          : LibXC Library
   Liviu Ungur et al                             : ANISO software


 Your calculation uses the libint2 library for the computation of 2-el integrals
 For citations please refer to: http://libint.valeyev.net

 Your ORCA version has been built with support for libXC version: 5.1.0
 For citations please refer to: https://tddft.org/programs/libxc/

 This ORCA versions uses:
   CBLAS   interface :  Fast vector & matrix operations
   LAPACKE interface :  Fast linear algebra routines
   SCALAPACK package :  Parallel linear algebra routines
   Shared memory     :  Shared parallel matrices
   BLAS/LAPACK       :  OpenBLAS 0.3.15  USE64BITINT DYNAMIC_ARCH NO_AFFINITY SkylakeX SINGLE_THREADED
        Core in use  :  SkylakeX
   Copyright (c) 2011-2014, The OpenBLAS Project


================================================================================

----- Orbital basis set information -----
Your calculation utilizes the basis: def2-SVP
   F. Weigend and R. Ahlrichs, Phys. Chem. Chem. Phys. 7, 3297 (2005).

The basis set includes element-specific modifications.

Your calculation utilizes the basis: aug-cc-pVTZ 
    H, B-Ne : Obtained from the ccRepo (grant-hill.group.shef.ac.uk/ccrepo) Feb. 2017
              R. A. Kendall, T. H. Dunning, Jr., R. J. Harrison, J. Chem. Phys. 96, 6796 (1992)
         He : Obtained from the ccRepo (grant-hill.group.shef.ac.uk/ccrepo) Feb. 2017
              D. E. Woon, T. H. Dunning, Jr., J. Chem. Phys. 100, 2975 (1994)
  Li-Be, Na : Obtained from the ccRepo (grant-hill.group.shef.ac.uk/ccrepo) Feb. 2017
              B. P. Prascher, D. E. Woon, K. A. Peterson, T. H. Dunning, Jr., A. K. Wilson, Theor. Chem. Acc. 128, 69 (2011)
         Mg : Obtained from the Peterson Research Group Website (tyr0.chem.wsu.edu/~kipeters) Feb. 2017
              B. P. Prascher, D. E. Woon, K. A. Peterson, T. H. Dunning, Jr., A. K. Wilson, Theor. Chem. Acc. 128, 69 (2011)
      Al-Ar : Obtained from the ccRepo (grant-hill.group.shef.ac.uk/ccrepo) Feb. 2017
              D. E. Woon, T. H. Dunning, Jr., J. Chem. Phys. 98, 1358 (1993)
      Sc-Zn : Obtained from the ccRepo (grant-hill.group.shef.ac.uk/ccrepo) Feb. 2017
              N. B. Balabanov, K. A. Peterson, J. Chem. Phys. 123, 064107 (2005)
              N. B. Balabanov, K. A. Peterson, J. Chem. Phys. 125, 074110 (2006)
      Ga-Kr : Obtained from the ccRepo (grant-hill.group.shef.ac.uk/ccrepo) Feb. 2017
              A. K. Wilson, D. E. Woon, K. A. Peterson, T. H. Dunning, Jr., J. Chem. Phys. 110, 7667 (1999)
     Ag, Au : Obtained from the Peterson Research Group Website (tyr0.chem.wsu.edu/~kipeters) Feb. 2017
              K. A. Peterson, C. Puzzarini, Theor. Chem. Acc. 114, 283 (2005)

Your calculation utilizes the basis: cc-pVTZ 
       H, B-Ne : Obtained from the ccRepo (grant-hill.group.shef.ac.uk/ccrepo) Feb. 2017
                 T. H. Dunning, Jr., J. Chem. Phys. 90, 1007 (1989)
            He : Obtained from the ccRepo (grant-hill.group.shef.ac.uk/ccrepo) Feb. 2017
                 D. E. Woon, T. H. Dunning, Jr., J. Chem. Phys. 100, 2975 (1994)
  Li-Be, Na-Mg : Obtained from the ccRepo (grant-hill.group.shef.ac.uk/ccrepo) Feb. 2017
                 B. P. Prascher, D. E. Woon, K. A. Peterson, T. H. Dunning, Jr., A. K. Wilson, Theor. Chem. Acc. 128, 69 (2011)
         Al-Ar : Obtained from the ccRepo (grant-hill.group.shef.ac.uk/ccrepo) Feb. 2017
                 D. E. Woon, T. H. Dunning, Jr., J. Chem. Phys. 98, 1358 (1993)
            Ca : Obtained from the Peterson Research Group Website (tyr0.chem.wsu.edu/~kipeters) Feb. 2017
                 J. Koput, K. A. Peterson, J. Phys. Chem. 106, 9595 (2002)
         Sc-Zn : Obtained from the ccRepo (grant-hill.group.shef.ac.uk/ccrepo) Feb. 2017
                 N. B. Balabanov, K. A. Peterson, J. Chem. Phys. 123, 064107 (2005)
                 N. B. Balabanov, K. A. Peterson, J. Chem. Phys. 125, 074110 (2006)
         Ga-Kr : Obtained from the ccRepo (grant-hill.group.shef.ac.uk/ccrepo) Feb. 2017
                 A. K. Wilson, D. E. Woon, K. A. Peterson, T. H. Dunning, Jr., J. Chem. Phys. 110, 7667 (1999)
             Y : Obtained from the ccRepo (grant-hill.group.shef.ac.uk/ccrepo) Feb. 2017
                 K. A. Peterson, D. Figgen, M. Dolg, H. Stoll, J. Chem. Phys. 126, 124101 (2007)
        Ag, Au : Obtained from the Peterson Research Group Website (tyr0.chem.wsu.edu/~kipeters) Feb. 2017
                 K. A. Peterson, C. Puzzarini, Theor. Chem. Acc. 114, 283 (2005)

----- AuxJ basis set information -----
Your calculation utilizes the auxiliary basis: def2/J
   F. Weigend, Phys. Chem. Chem. Phys. 8, 1057 (2006).

================================================================================
                                        WARNINGS
                       Please study these warnings very carefully!
================================================================================

WARNING: The globally-selected AuxJ basis set is optimized for use with ECPs
         Make sure a suitable alternative is explicitly given all heavy elements (Z>36)

INFO   : the flag for use of the SHARK integral package has been found!

================================================================================
                                       INPUT FILE
================================================================================
NAME = final021.orca.inp
|  1> ! NoMOPrint PrintBasis #MINIPRINT SMALLPRINT LARGEPRINT
|  2> ! ALLPOP XYZFILE
|  3> #! BP86 3-21G   TightSCF
|  4> ! ENGRAD
|  5> ! B3LYP NormalPNO PModel #DecontractAux
|  6> #! VerySlowConv 
|  7>  %maxcore 5000
|  8>  %scf  maxiter   500  end 
|  9> 
| 10> %pal
| 11>     nprocs 32
| 12> end
| 13> 
| 14> %basis
| 15>     NewGTO O    # New basis for oxygen
| 16>         "aug-cc-pVTZ"
| 17>     end
| 18>     NewGTO C    # New basis for carbon
| 19>         "aug-cc-pVTZ"
| 20>     end
| 21>     NewGTO H    # New basis for hydrogen
| 22>         "cc-pVTZ"
| 23>     end
| 24> end
| 25> 
| 26> * xyz 0   1
| 27>   C  9.79  11.58  10.09  #1
| 28>   H  9.34  10.72  10.59  #2
| 29>   H  9.13  11.78  9.23  #3
| 30>   C  11.26  11.24  9.76  #4
| 31>   H  11.38  10.84  8.72  #5
| 32>   H  11.85  12.22  9.66  #6
| 33>   C  12.01  10.35  10.85  #7
| 34>   H  13.11  10.35  10.74  #8
| 35>   H  11.72  9.27  10.78  #9
| 36>   C  11.88  10.75  12.3  #10
| 37>   H  10.84  10.94  12.44  #11
| 38>   H  12.44  11.73  12.49  #12
| 39>   O  12.43  9.65  13.12  #13
| 40>   H  11.98  8.84  12.89  #14
| 41>   O  9.69  12.73  11.06  #15
| 42>   H  8.73  13  11.1  #16
| 43>   O  11.94  12.46  6.64  #17
| 44>   H  11.75  12.03  5.84  #18
| 45>   H  11.13  12.82  6.97  #19
| 46>   O  8.3  8.3  11.36  #20
| 47>   H  8.55  8.32  10.43  #21
| 48>   H  7.48  7.76  11.31  #22
| 49>   O  13.27  13.46  13.77  #23
| 50>   H  14.03  13.23  13.28  #24
| 51>   H  13.26  12.84  14.53  #25
| 52>   O  11.07  9.09  15.43  #26
| 53>   H  10.17  8.86  15.08  #27
| 54>   H  11.6  9.05  14.64  #28
| 55>   O  15.1  9.67  13.09  #29
| 56>   H  15.2  8.95  12.4  #30
| 57>   H  14.12  9.79  13.21  #31
| 58>   O  11.22  14.59  12.65  #32
| 59>   H  10.89  13.8  12.19  #33
| 60>   H  11.85  14.16  13.24  #34
| 61>   O  6.8  13.19  11.17  #35
| 62>   H  6.8  12.26  11.03  #36
| 63>   H  6.78  13.68  10.34  #37
| 64>   O  17.24  8.02  14.22  #38
| 65>   H  16.3  8.34  14.28  #39
| 66>   H  17.21  7.49  13.4  #40
| 67>   O  8.98  13.51  7.22  #41
| 68>   H  8.69  12.61  7.43  #42
| 69>   H  8.7  13.62  6.29  #43
| 70>   O  15.54  12.23  11.93  #44
| 71>   H  16.4  12.46  12.2  #45
| 72>   H  15.35  11.4  12.39  #46
| 73>   O  14.46  12.37  5.24  #47
| 74>   H  14.37  12.74  4.33  #48
| 75>   H  13.66  12.5  5.84  #49
| 76>   O  10.91  11.21  3.84  #50
| 77>   H  11.32  11.73  3.07  #51
| 78>   H  11.05  10.23  3.6  #52
| 79>   O  15.44  7.71  10.9  #53
| 80>   H  15.57  6.91  11.42  #54
| 81>   H  16.32  8.07  10.94  #55
| 82>   O  6.39  6.28  11.38  #56
| 83>   H  6.73  5.74  12.1  #57
| 84>   H  5.69  6.95  11.67  #58
| 85>   O  15  15.36  15.24  #59
| 86>   H  14.2  15.25  14.8  #60
| 87>   H  15.63  15.97  14.73  #61
| 88>   O  11.71  7.02  12.46  #62
| 89>   H  11  6.62  13.01  #63
| 90>   H  12.55  6.87  12.99  #64
| 91>   O  11.64  8.97  18.53  #65
| 92>   H  11.85  8.05  18.75  #66
| 93>   H  11.91  9.05  17.61  #67
| 94>   O  7.97  10.97  7.6  #68
| 95>   H  8.2  10.71  6.68  #69
| 96>   H  7.05  10.78  7.7  #70
| 97>   O  11.18  6.16  9.57  #71
| 98>   H  11.31  6.44  10.46  #72
| 99>   H  10.24  5.8  9.53  #73
|100>   O  8.85  7.98  13.98  #74
|101>   H  8.63  8.04  13.05  #75
|102>   H  8.92  7.02  14.02  #76
|103>   O  11.34  11.97  15.7  #77
|104>   H  11.01  11.07  15.72  #78
|105>   H  11.01  12.35  16.47  #79
|106>   O  6.27  10.43  11.78  #80
|107>   H  7.03  9.81  11.6  #81
|108>   H  5.55  9.84  12.09  #82
|109>   O  9.47  8.62  8.63  #83
|110>   H  9.49  9.13  7.81  #84
|111>   H  10.2  8.04  8.5  #85
|112>   O  10.4  15.79  7.9  #86
|113>   H  10.01  14.9  7.65  #87
|114>   H  9.63  16.38  7.56  #88
|115>   Q  0.6645  12.35$  10.84$  0.04$
|116>   Q  0.6645  13.03$  9.72$  0.88$
|117>   Q  -1.3290  12.38$  10.26$  0.64$
|118>   Q  0.6645  18.41$  5.54$  13.03$
|119>   Q  0.6645  20.06$  5.75$  13.07$
|120>   Q  -1.3290  19.22$  5.61$  13.36$
|121>   Q  0.6645  14.38$  5.99$  2.55$
|122>   Q  0.6645  13.11$  6.37$  1.7$
|123>   Q  -1.3290  13.84$  6.5$  2.15$
|124>   Q  0.6645  19.12$  8.06$  5.54$
|125>   Q  0.6645  19.11$  7.43$  4.3$
|126>   Q  -1.3290  19.28$  7.42$  5.1$
|127>   Q  0.6645  8.11$  2.98$  18.39$
|128>   Q  0.6645  6.67$  3.07$  17.98$
|129>   Q  -1.3290  7.5$  3.08$  17.84$
|130>   Q  0.6645  20.35$  6.59$  7.82$
|131>   Q  0.6645  20.37$  6.32$  6.33$
|132>   Q  -1.3290  20.62$  6.19$  7.12$
|133>   Q  0.6645  7.33$  19.7$  15.12$
|134>   Q  0.6645  8.27$  18.48$  15.03$
|135>   Q  -1.3290  7.99$  19.25$  14.83$
|136>   Q  0.6645  15.8$  11.93$  1.87$
|137>   Q  0.6645  16.97$  10.97$  2.15$
|138>   Q  -1.3290  16.3$  11.25$  1.73$
|139>   Q  0.6645  12.97$  17.45$  16.8$
|140>   Q  0.6645  13.81$  16.11$  16.72$
|141>   Q  -1.3290  13.14$  16.61$  16.91$
|142>   Q  0.6645  7.1$  7.16$  20.03$
|143>   Q  0.6645  5.68$  6.47$  19.62$
|144>   Q  -1.3290  6.27$  6.87$  20.11$
|145>   Q  0.6645  16.59$  6.86$  5.47$
|146>   Q  0.6645  16.55$  7.7$  4.23$
|147>   Q  -1.3290  16.41$  7.54$  5.02$
|148>   Q  0.6645  12.96$  17.65$  20.22$
|149>   Q  0.6645  13.83$  16.38$  19.89$
|150>   Q  -1.3290  13.43$  16.95$  20.38$
|151>   Q  0.6645  18.76$  16.75$  16.15$
|152>   Q  0.6645  19.12$  15.87$  17.38$
|153>   Q  -1.3290  19.25$  16.21$  16.62$
|154>   Q  0.6645  14.13$  18.73$  10.75$
|155>   Q  0.6645  13.5$  20.06$  11.2$
|156>   Q  -1.3290  14.03$  19.41$  11.24$
|157>   Q  0.6645  14.17$  1.49$  7$
|158>   Q  0.6645  15.61$  1.79$  6.47$
|159>   Q  -1.3290  14.97$  1.32$  6.76$
|160>   Q  0.6645  4.6$  11.48$  8.28$
|161>   Q  0.6645  5.44$  11.79$  7.06$
|162>   Q  -1.3290  5.06$  11.29$  7.59$
|163>   Q  0.6645  11.78$  16.09$  6.44$
|164>   Q  0.6645  11.95$  16.25$  5.02$
|165>   Q  -1.3290  12.24$  16.1$  5.77$
|166>   Q  0.6645  12.97$  4.07$  10.74$
|167>   Q  0.6645  12.75$  5.13$  11.95$
|168>   Q  -1.3290  12.8$  4.38$  11.54$
|169>   Q  0.6645  6.4$  6.47$  16.33$
|170>   Q  0.6645  5.93$  7.86$  16.1$
|171>   Q  -1.3290  5.83$  7.05$  16.19$
|172>   Q  0.6645  2.94$  7.38$  9.51$
|173>   Q  0.6645  2.94$  8.84$  8.75$
|174>   Q  -1.3290  2.87$  8.25$  9.4$
|175>   Q  0.6645  18.86$  9.38$  14.23$
|176>   Q  0.6645  20.38$  9.66$  14.19$
|177>   Q  -1.3290  19.59$  9.82$  14.42$
|178>   Q  0.6645  17.07$  9.39$  9.9$
|179>   Q  0.6645  17.71$  9.86$  11.25$
|180>   Q  -1.3290  17.53$  9.31$  10.66$
|181>   Q  0.6645  10.63$  16.79$  9.38$
|182>   Q  0.6645  10.23$  17.13$  10.99$
|183>   Q  -1.3290  10.44$  17.25$  10.14$
|184>   Q  0.6645  12.57$  10.33$  19.65$
|185>   Q  0.6645  13.47$  11.54$  19.42$
|186>   Q  -1.3290  12.84$  11.09$  19.82$
|187>   Q  0.6645  7.64$  13.74$  18.16$
|188>   Q  0.6645  7.94$  13.83$  16.58$
|189>   Q  -1.3290  7.49$  13.72$  17.32$
|190>   Q  0.6645  0.53$  14.24$  11.84$
|191>   Q  0.6645  0.02$  14.71$  13.23$
|192>   Q  -1.3290  0.59$  14.44$  12.66$
|193>   Q  0.6645  6.61$  10.25$  15.37$
|194>   Q  0.6645  7.53$  8.9$  15.06$
|195>   Q  -1.3290  6.98$  9.46$  15.48$
|196>   Q  0.6645  15.55$  8.96$  19.58$
|197>   Q  0.6645  14.76$  8.61$  20.94$
|198>   Q  -1.3290  15.05$  8.48$  20.14$
|199>   Q  0.6645  10.27$  16.05$  12.81$
|200>   Q  0.6645  8.93$  16.73$  13$
|201>   Q  -1.3290  9.71$  16.69$  12.74$
|202>   Q  0.6645  14.62$  8.16$  1.29$
|203>   Q  0.6645  15.37$  9.47$  1.18$
|204>   Q  -1.3290  14.78$  8.9$  0.98$
|205>   Q  0.6645  16.86$  2.73$  10.07$
|206>   Q  0.6645  16.51$  2.38$  11.58$
|207>   Q  -1.3290  16.46$  2.77$  10.84$
|208>   Q  0.6645  13.77$  17.59$  6.05$
|209>   Q  0.6645  13.19$  18.81$  6.75$
|210>   Q  -1.3290  13.75$  18.39$  6.28$
|211>   Q  0.6645  14.35$  4.16$  9$
|212>   Q  0.6645  14.72$  3.03$  9.89$
|213>   Q  -1.3290  14.21$  3.45$  9.4$
|214>   Q  0.6645  13.21$  4.18$  21.32$
|215>   Q  0.6645  11.74$  4.61$  21.13$
|216>   Q  -1.3290  12.54$  4.43$  20.88$
|217>   Q  0.6645  1.36$  12.5$  13.48$
|218>   Q  0.6645  2.46$  12.09$  14.59$
|219>   Q  -1.3290  1.72$  12$  14.09$
|220>   Q  0.6645  -0.05$  11.1$  9.13$
|221>   Q  0.6645  1.38$  11.47$  8.9$
|222>   Q  -1.3290  0.68$  11.07$  8.73$
|223>   Q  0.6645  3.64$  16.91$  11.81$
|224>   Q  0.6645  4.48$  16.43$  13.12$
|225>   Q  -1.3290  4.22$  16.45$  12.28$
|226>   Q  0.6645  21.1$  13.17$  9.97$
|227>   Q  0.6645  20.6$  14.55$  10.55$
|228>   Q  -1.3290  21.18$  13.96$  10.31$
|229>   Q  0.6645  18.44$  15.58$  7.19$
|230>   Q  0.6645  19.33$  16.23$  8.29$
|231>   Q  -1.3290  19.17$  15.69$  7.66$
|232>   Q  0.6645  12.93$  6.57$  15.97$
|233>   Q  0.6645  12.79$  5.98$  17.28$
|234>   Q  -1.3290  12.57$  6.09$  16.52$
|235>   Q  0.6645  0.94$  14.66$  5.81$
|236>   Q  0.6645  1.93$  13.66$  5.2$
|237>   Q  -1.3290  1.69$  14.36$  5.6$
|238>   Q  0.6645  14.61$  8.99$  15.78$
|239>   Q  0.6645  15.21$  7.68$  16.49$
|240>   Q  -1.3290  14.76$  8.16$  15.88$
|241>   Q  0.6645  3.81$  13.34$  13.77$
|242>   Q  0.6645  4.91$  12.75$  14.61$
|243>   Q  -1.3290  4.2$  13.13$  14.47$
|244>   Q  0.6645  14.17$  5.47$  14.06$
|245>   Q  0.6645  14.42$  6.92$  14.47$
|246>   Q  -1.3290  14.01$  6.29$  14.04$
|247>   Q  0.6645  17.2$  12.56$  16.37$
|248>   Q  0.6645  16.09$  13.53$  15.84$
|249>   Q  -1.3290  16.61$  12.84$  15.82$
|250>   Q  0.6645  14.66$  6.13$  8.09$
|251>   Q  0.6645  15.2$  6.83$  9.26$
|252>   Q  -1.3290  15.27$  6.27$  8.62$
|253>   Q  0.6645  19.57$  11.93$  8.9$
|254>   Q  0.6645  19.67$  11.47$  10.44$
|255>   Q  -1.3290  19.96$  11.69$  9.64$
|256>   Q  0.6645  7.72$  4.5$  16.62$
|257>   Q  0.6645  8.05$  5.19$  15.44$
|258>   Q  -1.3290  7.81$  5.2$  16.22$
|259>   Q  0.6645  9.86$  19.1$  9.98$
|260>   Q  0.6645  8.55$  19.66$  9.31$
|261>   Q  -1.3290  9.34$  19.7$  9.65$
|262>   Q  0.6645  16.51$  12.66$  5.73$
|263>   Q  0.6645  18.01$  12.58$  6.14$
|264>   Q  -1.3290  17.3$  12.4$  5.67$
|265>   Q  0.6645  12.48$  19.07$  14.98$
|266>   Q  0.6645  13.62$  19.47$  16.04$
|267>   Q  -1.3290  12.86$  19.2$  15.77$
|268>   Q  0.6645  10.97$  19.34$  16.51$
|269>   Q  0.6645  9.76$  18.51$  17.05$
|270>   Q  -1.3290  10.38$  19.07$  17.11$
|271>   Q  0.6645  -0.45$  8.29$  9.52$
|272>   Q  0.6645  1.07$  8.5$  9.93$
|273>   Q  -1.3290  0.23$  8.34$  10.04$
|274>   Q  0.6645  10.89$  5.76$  15.41$
|275>   Q  0.6645  10.29$  4.94$  14.19$
|276>   Q  -1.3290  10.45$  5.64$  14.68$
|277>   Q  0.6645  0.84$  10.24$  13.25$
|278>   Q  0.6645  0.32$  9.17$  12.14$
|279>   Q  -1.3290  0.31$  9.58$  12.89$
|280>   Q  0.6645  14.22$  11.55$  16.72$
|281>   Q  0.6645  15.44$  11.42$  15.75$
|282>   Q  -1.3290  14.74$  11.14$  16.18$
|283>   Q  0.6645  3.93$  14.63$  11.7$
|284>   Q  0.6645  5.01$  13.63$  11.26$
|285>   Q  -1.3290  4.28$  13.85$  11.59$
|286>   Q  0.6645  13.48$  13.09$  2.48$
|287>   Q  0.6645  14.82$  13.93$  2.36$
|288>   Q  -1.3290  14.32$  13.27$  2.56$
|289>   Q  0.6645  15.53$  16.26$  18.33$
|290>   Q  0.6645  15.89$  15.18$  19.24$
|291>   Q  -1.3290  15.42$  15.52$  18.66$
|292>   Q  0.6645  18.18$  10.27$  4.24$
|293>   Q  0.6645  19.13$  10.84$  3.22$
|294>   Q  -1.3290  18.49$  10.39$  3.47$
|295>   Q  0.6645  16.36$  6.19$  2.97$
|296>   Q  0.6645  16.97$  6.96$  1.69$
|297>   Q  -1.3290  16.79$  6.84$  2.51$
|298>   Q  0.6645  16.62$  18.14$  9.37$
|299>   Q  0.6645  16.3$  19.18$  8.28$
|300>   Q  -1.3290  16.32$  18.43$  8.62$
|301>   Q  0.6645  8.23$  20.47$  12.87$
|302>   Q  0.6645  8.49$  20.26$  11.38$
|303>   Q  -1.3290  8.07$  20.56$  12.07$
|304>   Q  0.6645  9.62$  2.57$  13.65$
|305>   Q  0.6645  11.21$  2.85$  13.92$
|306>   Q  -1.3290  10.35$  2.95$  14$
|307>   Q  0.6645  3.29$  12.21$  10.33$
|308>   Q  0.6645  3.31$  13.17$  9.1$
|309>   Q  -1.3290  3.36$  12.4$  9.5$
|310>   Q  0.6645  5.49$  15.65$  3.48$
|311>   Q  0.6645  6.44$  16.32$  2.48$
|312>   Q  -1.3290  6.2$  15.74$  3.03$
|313>   Q  0.6645  11.04$  18.24$  13.03$
|314>   Q  0.6645  11.92$  19.59$  13$
|315>   Q  -1.3290  11.7$  18.81$  13.26$
|316>   Q  0.6645  17.01$  18.21$  15.68$
|317>   Q  0.6645  17.31$  17.56$  14.33$
|318>   Q  -1.3290  17.51$  17.82$  15.13$
|319>   Q  0.6645  21.21$  11.2$  5.84$
|320>   Q  0.6645  20.61$  12.47$  6.57$
|321>   Q  -1.3290  20.6$  11.7$  6.21$
|322>   Q  0.6645  2.95$  16.93$  7.74$
|323>   Q  0.6645  2.69$  18.3$  7.09$
|324>   Q  -1.3290  2.68$  17.75$  7.71$
|325>   Q  0.6645  10.02$  9.69$  0.23$
|326>   Q  0.6645  8.99$  8.74$  -0.49$
|327>   Q  -1.3290  9.31$  9.18$  0.16$
|328>   Q  0.6645  13.38$  17.37$  12.73$
|329>   Q  0.6645  13.11$  15.79$  12.51$
|330>   Q  -1.3290  13.57$  16.54$  12.62$
|331>   Q  0.6645  6.12$  16.61$  11.23$
|332>   Q  0.6645  7.58$  16.64$  11.48$
|333>   Q  -1.3290  6.91$  16.7$  11$
|334>   Q  0.6645  16.2$  4.04$  15.03$
|335>   Q  0.6645  15.43$  3.49$  13.84$
|336>   Q  -1.3290  15.56$  4.02$  14.5$
|337>   Q  0.6645  2.15$  10.99$  17.8$
|338>   Q  0.6645  3.47$  11.62$  17.72$
|339>   Q  -1.3290  2.66$  11.63$  17.83$
|340>   Q  0.6645  10.48$  22.16$  15.2$
|341>   Q  0.6645  9.34$  21.23$  15.05$
|342>   Q  -1.3290  9.91$  21.78$  14.76$
|343>   Q  0.6645  14.64$  18.09$  3.78$
|344>   Q  0.6645  14.15$  19.41$  4.07$
|345>   Q  -1.3290  14.24$  18.75$  3.57$
|346>   Q  0.6645  9.8$  12.95$  4.14$
|347>   Q  0.6645  8.33$  13.23$  3.82$
|348>   Q  -1.3290  9.11$  13.41$  4.13$
|349>   Q  0.6645  14.19$  3.94$  17.34$
|350>   Q  0.6645  14.6$  3.77$  18.74$
|351>   Q  -1.3290  14.73$  3.8$  17.94$
|352>   Q  0.6645  1.61$  14.01$  7.66$
|353>   Q  0.6645  1.1$  14.62$  8.91$
|354>   Q  -1.3290  1.68$  14.4$  8.37$
|355>   Q  0.6645  2.23$  11.43$  4.66$
|356>   Q  0.6645  3.48$  12.17$  4.5$
|357>   Q  -1.3290  2.68$  12.01$  4.32$
|358>   Q  0.6645  16.85$  17.5$  3.62$
|359>   Q  0.6645  16.14$  16.16$  3.52$
|360>   Q  -1.3290  16.42$  16.84$  3.9$
|361>   Q  0.6645  6.38$  5.32$  3.98$
|362>   Q  0.6645  7.67$  5.1$  3.29$
|363>   Q  -1.3290  6.95$  5.49$  3.43$
|364>   Q  0.6645  9.5$  -0.21$  8.99$
|365>   Q  0.6645  9.13$  0.64$  7.8$
|366>   Q  -1.3290  9.31$  0.53$  8.62$
|367>   Q  0.6645  6.62$  14.8$  13.05$
|368>   Q  0.6645  6.62$  16.25$  13.75$
|369>   Q  -1.3290  6.95$  15.57$  13.28$
|370>   Q  0.6645  14.75$  10.39$  5.6$
|371>   Q  0.6645  15.24$  8.95$  5.6$
|372>   Q  -1.3290  14.81$  9.61$  5.9$
|373>   Q  0.6645  7.51$  0.63$  9.59$
|374>   Q  0.6645  7.3$  0.04$  10.97$
|375>   Q  -1.3290  7.18$  0.63$  10.38$
|376>   Q  0.6645  12.42$  5.66$  4.34$
|377>   Q  0.6645  11.6$  4.3$  4.91$
|378>   Q  -1.3290  12.29$  4.84$  4.68$
|379>   Q  0.6645  17.77$  2.5$  5.59$
|380>   Q  0.6645  17.19$  3.89$  6.36$
|381>   Q  -1.3290  17.26$  3.04$  6.09$
|382>   Q  0.6645  10.45$  2.33$  17.58$
|383>   Q  0.6645  10.56$  2.24$  16.01$
|384>   Q  -1.3290  10.34$  1.93$  16.8$
|385>   Q  0.6645  16.14$  11.08$  8.22$
|386>   Q  0.6645  16.02$  9.91$  7.44$
|387>   Q  -1.3290  16.39$  10.35$  7.99$
|388>   Q  0.6645  13.71$  1.48$  17.2$
|389>   Q  0.6645  14.8$  0.69$  18.13$
|390>   Q  -1.3290  14.11$  0.81$  17.56$
|391>   Q  0.6645  8.49$  1.57$  11.24$
|392>   Q  0.6645  9.88$  2.04$  10.92$
|393>   Q  -1.3290  9.17$  2.03$  11.36$
|394>   Q  0.6645  1.91$  17.13$  15.23$
|395>   Q  0.6645  0.98$  18.19$  15.53$
|396>   Q  -1.3290  1.65$  17.9$  15.15$
|397>   Q  0.6645  17.31$  13.54$  13.92$
|398>   Q  0.6645  18.54$  14.3$  13.33$
|399>   Q  -1.3290  17.77$  13.9$  13.3$
|400>   Q  0.6645  4.79$  18.95$  11.93$
|401>   Q  0.6645  6.02$  19.82$  12.25$
|402>   Q  -1.3290  5.26$  19.44$  12.42$
|403>   Q  0.6645  19.24$  9.37$  17.64$
|404>   Q  0.6645  19.13$  10.11$  16.24$
|405>   Q  -1.3290  18.91$  9.9$  17.07$
|406>   Q  0.6645  3.4$  5.76$  14.21$
|407>   Q  0.6645  4.31$  6.92$  14.73$
|408>   Q  -1.3290  3.67$  6.57$  14.28$
|409>   Q  0.6645  0.95$  10.53$  6.88$
|410>   Q  0.6645  0.62$  9.91$  5.43$
|411>   Q  -1.3290  1.07$  10.33$  6.04$
|412>   Q  0.6645  12.78$  2.71$  12.63$
|413>   Q  0.6645  12.69$  1.15$  13.03$
|414>   Q  -1.3290  12.85$  2.01$  13.16$
|415>   Q  0.6645  5.85$  17.69$  15.51$
|416>   Q  0.6645  6.13$  18.27$  14.09$
|417>   Q  -1.3290  5.97$  17.65$  14.68$
|418>   Q  0.6645  8.59$  8$  5.68$
|419>   Q  0.6645  8.23$  6.92$  4.65$
|420>   Q  -1.3290  8.56$  7.21$  5.37$
|421>   Q  0.6645  14.12$  17.67$  8.72$
|422>   Q  0.6645  12.98$  16.93$  9.54$
|423>   Q  -1.3290  13.43$  17.59$  9.24$
|424>   Q  0.6645  5.04$  1.85$  8.08$
|425>   Q  0.6645  4.91$  3.06$  8.97$
|426>   Q  -1.3290  4.94$  2.66$  8.23$
|427>   Q  0.6645  5.23$  14.88$  7.76$
|428>   Q  0.6645  3.61$  14.96$  8.01$
|429>   Q  -1.3290  4.41$  15.21$  7.75$
|430>   Q  0.6645  12.43$  7.54$  6.66$
|431>   Q  0.6645  12.68$  9.05$  6.65$
|432>   Q  -1.3290  12.28$  8.34$  6.43$
|433>   Q  0.6645  4.52$  15.88$  5.86$
|434>   Q  0.6645  3.46$  15.2$  5.1$
|435>   Q  -1.3290  4.19$  15.59$  5.15$
|436>   Q  0.6645  8.29$  4.17$  12.72$
|437>   Q  0.6645  7.26$  3.9$  13.73$
|438>   Q  -1.3290  7.75$  4.37$  13.27$
|439>   Q  0.6645  13$  5.92$  19.62$
|440>   Q  0.6645  13.96$  7.08$  19.3$
|441>   Q  -1.3290  13.21$  6.69$  19.27$
|442>   Q  0.6645  16.87$  10.99$  20.27$
|443>   Q  0.6645  16.62$  11.17$  21.81$
|444>   Q  -1.3290  16.74$  11.41$  21$
|445>   Q  0.6645  8.77$  8.58$  19.18$
|446>   Q  0.6645  9.56$  7.42$  19.38$
|447>   Q  -1.3290  8.91$  7.88$  19.59$
|448>   Q  0.6645  8.48$  14.31$  14.29$
|449>   Q  0.6645  9.71$  13.38$  14.78$
|450>   Q  -1.3290  8.92$  13.7$  14.77$
|451>   Q  0.6645  19.7$  8.73$  7.85$
|452>   Q  0.6645  19.16$  8.39$  9.3$
|453>   Q  -1.3290  19.58$  8.25$  8.55$
|454>   Q  0.6645  11.39$  13.01$  1.34$
|455>   Q  0.6645  11.33$  14.11$  2.51$
|456>   Q  -1.3290  11.58$  13.38$  2.1$
|457>   Q  0.6645  15.37$  10.12$  17.84$
|458>   Q  0.6645  16.86$  10.11$  17.93$
|459>   Q  -1.3290  16.09$  10.11$  18.26$
|460>   Q  0.6645  1.82$  14.91$  14.21$
|461>   Q  0.6645  3.25$  14.89$  14.95$
|462>   Q  -1.3290  2.49$  15.2$  14.68$
|463>   Q  0.6645  5.31$  13.63$  5.48$
|464>   Q  0.6645  5.8$  12.58$  4.54$
|465>   Q  -1.3290  5.49$  12.86$  5.23$
|466>   Q  0.6645  12.95$  22.2$  9.46$
|467>   Q  0.6645  12.01$  20.97$  9.23$
|468>   Q  -1.3290  12.33$  21.62$  9.67$
|469>   Q  0.6645  19.93$  15.4$  14.61$
|470>   Q  0.6645  19.94$  16.38$  13.44$
|471>   Q  -1.3290  20$  15.63$  13.8$
|472>   Q  0.6645  6.67$  11.02$  3.05$
|473>   Q  0.6645  6.89$  12.25$  2.08$
|474>   Q  -1.3290  6.71$  11.86$  2.86$
|475>   Q  0.6645  4.32$  6.82$  7.37$
|476>   Q  0.6645  3.96$  5.66$  8.25$
|477>   Q  -1.3290  4.48$  6.14$  7.81$
|478>   Q  0.6645  7.53$  4.61$  7.46$
|479>   Q  0.6645  6.71$  3.22$  7.22$
|480>   Q  -1.3290  7.39$  3.74$  7.21$
|481>   Q  0.6645  10.24$  16.66$  3.14$
|482>   Q  0.6645  9.82$  15.08$  3.52$
|483>   Q  -1.3290  10.34$  15.78$  3.3$
|484>   Q  0.6645  6.24$  2.94$  10.84$
|485>   Q  0.6645  5.49$  4.13$  11.16$
|486>   Q  -1.3290  5.61$  3.41$  10.79$
|487>   Q  0.6645  7.41$  8.72$  2.74$
|488>   Q  0.6645  6.09$  8.94$  3.65$
|489>   Q  -1.3290  6.91$  9.08$  3.34$
|490>   Q  0.6645  16.89$  15.7$  12.72$
|491>   Q  0.6645  15.58$  16.67$  12.66$
|492>   Q  -1.3290  16.41$  16.43$  12.87$
|493>   Q  0.6645  6.24$  19.56$  8.67$
|494>   Q  0.6645  6.6$  18.47$  9.69$
|495>   Q  -1.3290  6.78$  19.03$  9.06$
|496>   Q  0.6645  11.08$  21.6$  13.06$
|497>   Q  0.6645  11.7$  21.67$  11.64$
|498>   Q  -1.3290  11.69$  21.43$  12.46$
|499>   Q  0.6645  5.6$  11.07$  18.84$
|500>   Q  0.6645  6.19$  12.29$  17.99$
|501>   Q  -1.3290  5.59$  11.74$  18.26$
|502>   Q  0.6645  1.69$  17.59$  13.23$
|503>   Q  0.6645  1.19$  16.66$  12.25$
|504>   Q  -1.3290  1.43$  17.41$  12.5$
|505>   Q  0.6645  9.34$  16.23$  17.09$
|506>   Q  0.6645  7.86$  16.83$  16.98$
|507>   Q  -1.3290  8.72$  16.8$  16.9$
|508>   Q  0.6645  18.88$  14.56$  3.34$
|509>   Q  0.6645  18.67$  13.82$  4.58$
|510>   Q  -1.3290  19.13$  14.04$  3.94$
|511>   Q  0.6645  9.67$  9.69$  17.67$
|512>   Q  0.6645  8.13$  9.8$  17.36$
|513>   Q  -1.3290  8.87$  9.99$  17.74$
|514>   Q  0.6645  6.52$  11.77$  13.53$
|515>   Q  0.6645  7.39$  12.31$  14.67$
|516>   Q  -1.3290  6.68$  12.1$  14.28$
|517>   Q  0.6645  16.38$  0.98$  13.43$
|518>   Q  0.6645  17.75$  1.81$  13.21$
|519>   Q  -1.3290  16.91$  1.7$  13.39$
|520>   Q  0.6645  9.47$  12.48$  21.85$
|521>   Q  0.6645  10.36$  12.88$  20.7$
|522>   Q  -1.3290  10.04$  12.97$  21.46$
|523>   Q  0.6645  9.51$  10.49$  4.89$
|524>   Q  0.6645  8.18$  9.89$  4.59$
|525>   Q  -1.3290  8.81$  10.09$  5.1$
|526>   Q  0.6645  9.18$  5.72$  17.57$
|527>   Q  0.6645  10.61$  6.05$  17.23$
|528>   Q  -1.3290  9.97$  5.98$  17.74$
|529>   Q  0.6645  9.57$  8.07$  1.76$
|530>   Q  0.6645  10.11$  7.69$  3.07$
|531>   Q  -1.3290  9.55$  7.65$  2.47$
|532>   Q  0.6645  11.67$  1.89$  5.71$
|533>   Q  0.6645  11.54$  1.08$  4.43$
|534>   Q  -1.3290  11.42$  1.74$  4.93$
|535>   Q  0.6645  18.53$  13.9$  8.13$
|536>   Q  0.6645  17.56$  12.58$  8.34$
|537>   Q  -1.3290  18.25$  13.08$  8.09$
|538>   Q  0.6645  11.41$  15.78$  17.89$
|539>   Q  0.6645  10.96$  14.35$  18.41$
|540>   Q  -1.3290  10.85$  15.15$  18.2$
|541>   Q  0.6645  16.87$  6.55$  17.38$
|542>   Q  0.6645  15.82$  5.64$  17.91$
|543>   Q  -1.3290  16.1$  6.36$  17.64$
|544>   Q  0.6645  19.62$  12.9$  16.41$
|545>   Q  0.6645  19.22$  11.82$  17.35$
|546>   Q  -1.3290  19.2$  12.59$  17.03$
|547>   Q  0.6645  9.94$  11.58$  18.2$
|548>   Q  0.6645  11.33$  12.01$  18.86$
|549>   Q  -1.3290  10.57$  12.12$  18.46$
|550>   Q  0.6645  5.51$  14.26$  17.3$
|551>   Q  0.6645  4.36$  14.69$  18.35$
|552>   Q  -1.3290  4.84$  14.75$  17.62$
|553>   Q  0.6645  16.73$  2.11$  15.6$
|554>   Q  0.6645  16.33$  2.72$  16.91$
|555>   Q  -1.3290  16.84$  2.32$  16.38$
|556>   Q  0.6645  8.42$  3.96$  10.06$
|557>   Q  0.6645  8.01$  5.5$  9.98$
|558>   Q  -1.3290  8.54$  4.8$  10.19$
|559>   Q  0.6645  16.59$  16.85$  7.35$
|560>   Q  0.6645  16.63$  16.53$  5.95$
|561>   Q  -1.3290  16.7$  16.32$  6.72$
|562>   Q  0.6645  4.23$  9.65$  7.15$
|563>   Q  0.6645  2.94$  9.38$  6.6$
|564>   Q  -1.3290  3.68$  9.15$  6.88$
|565>   Q  0.6645  4$  8.28$  11.21$
|566>   Q  0.6645  4.18$  7.55$  12.58$
|567>   Q  -1.3290  4.38$  8.1$  11.94$
|568>   Q  0.6645  9.38$  4.18$  6.88$
|569>   Q  0.6645  9.46$  5.48$  6.07$
|570>   Q  -1.3290  9.73$  4.74$  6.33$
|571>   Q  0.6645  18.05$  6.88$  15.36$
|572>   Q  0.6645  19.22$  6.58$  16.16$
|573>   Q  -1.3290  18.4$  6.56$  16.01$
|574>   Q  0.6645  7.37$  2.56$  15.7$
|575>   Q  0.6645  7.14$  1.28$  14.87$
|576>   Q  -1.3290  7.2$  2.09$  15$
|577>   Q  0.6645  15.22$  12.32$  18.46$
|578>   Q  0.6645  14.44$  13.61$  18.14$
|579>   Q  -1.3290  14.54$  12.78$  18.34$
|580>   Q  0.6645  6.05$  18.07$  17.95$
|581>   Q  0.6645  5.46$  16.7$  17.46$
|582>   Q  -1.3290  5.93$  17.43$  17.41$
|583>   Q  0.6645  7.69$  6.57$  7.28$
|584>   Q  0.6645  6.36$  6.22$  8.08$
|585>   Q  -1.3290  7.2$  6.21$  7.89$
|586>   Q  0.6645  18.04$  9.68$  6.98$
|587>   Q  0.6645  19.33$  10.4$  6.52$
|588>   Q  -1.3290  18.77$  9.77$  6.58$
|589>   Q  0.6645  16.69$  5.89$  7.24$
|590>   Q  0.6645  18.15$  6.08$  6.66$
|591>   Q  -1.3290  17.39$  5.69$  6.83$
|592>   Q  0.6645  7.8$  16.4$  3.74$
|593>   Q  0.6645  8.16$  17.93$  3.62$
|594>   Q  -1.3290  8.12$  17.14$  3.98$
|595>   Q  0.6645  6.76$  15.34$  9.24$
|596>   Q  0.6645  7.46$  14.44$  8.36$
|597>   Q  -1.3290  6.82$  14.68$  8.76$
|598>   Q  0.6645  11.01$  18.65$  4.48$
|599>   Q  0.6645  12.2$  18.27$  3.59$
|600>   Q  -1.3290  11.39$  18.46$  3.76$
|601>   Q  0.6645  15.23$  15.27$  7.17$
|602>   Q  0.6645  13.68$  15.07$  6.93$
|603>   Q  -1.3290  14.42$  15.03$  7.37$
|604>   Q  0.6645  10.32$  4.46$  18.72$
|605>   Q  0.6645  11.35$  3.53$  19.47$
|606>   Q  -1.3290  10.63$  3.73$  19.04$
|607>   Q  0.6645  15.47$  12.83$  9.86$
|608>   Q  0.6645  15.14$  13.49$  8.45$
|609>   Q  -1.3290  15.57$  13$  9.01$
|610>   Q  0.6645  12.3$  5.41$  7.99$
|611>   Q  0.6645  12.57$  5.19$  6.49$
|612>   Q  -1.3290  12.74$  5.49$  7.28$
|613>   Q  0.6645  4.2$  8.47$  5.13$
|614>   Q  0.6645  4.62$  7.27$  4.11$
|615>   Q  -1.3290  4.53$  8.07$  4.4$
|616>   Q  0.6645  10.87$  19.42$  7.66$
|617>   Q  0.6645  12.02$  18.88$  8.53$
|618>   Q  -1.3290  11.68$  19.35$  7.91$
|619>   Q  0.6645  9.27$  18.56$  6.05$
|620>   Q  0.6645  9.37$  19.86$  5.39$
|621>   Q  -1.3290  9.7$  19.25$  5.8$
|622>   Q  0.6645  3.24$  19.43$  10.67$
|623>   Q  0.6645  3.55$  18.4$  9.55$
|624>   Q  -1.3290  3.74$  18.88$  10.23$
|625>   Q  0.6645  1.66$  5.35$  9.34$
|626>   Q  0.6645  2.67$  4.64$  10.19$
|627>   Q  -1.3290  2.44$  5.21$  9.63$
|628>   Q  0.6645  12.79$  2.3$  8.13$
|629>   Q  0.6645  11.63$  1.29$  8.09$
|630>   Q  -1.3290  12.29$  1.74$  7.77$
|631>   Q  0.6645  5$  3.58$  5.11$
|632>   Q  0.6645  5.56$  4.64$  6.04$
|633>   Q  -1.3290  5.21$  4.37$  5.36$
|634>   Q  0.6645  7.85$  16.93$  6.18$
|635>   Q  0.6645  7.56$  17.69$  7.59$
|636>   Q  -1.3290  7.99$  17.23$  6.99$
|637>   Q  0.6645  12.49$  8.32$  3.02$
|638>   Q  0.6645  11.99$  8.39$  4.53$
|639>   Q  -1.3290  11.93$  8.45$  3.64$
|640>   Q  0.6645  13.29$  2.78$  15.07$
|641>   Q  0.6645  12.78$  4.18$  15.58$
|642>   Q  -1.3290  12.88$  3.35$  15.6$
|643>   Q  0.6645  16.69$  4.69$  11.55$
|644>   Q  0.6645  16.34$  5.09$  12.93$
|645>   Q  -1.3290  16.69$  5.22$  12.2$
|646>   Q  0.6645  15.95$  19.24$  11.31$
|647>   Q  0.6645  17.07$  18.19$  11.74$
|648>   Q  -1.3290  16.74$  18.86$  11.34$
|649>   Q  0.6645  8.13$  10.68$  0.37$
|650>   Q  0.6645  7.08$  11.67$  -0.23$
|651>   Q  -1.3290  7.74$  11.43$  0.26$
|652>   Q  0.6645  8.09$  3.14$  3.59$
|653>   Q  0.6645  9$  3.94$  4.55$
|654>   Q  -1.3290  8.74$  3.64$  3.81$
|655>   Q  0.6645  19.11$  11.39$  12.82$
|656>   Q  0.6645  18.33$  12.4$  11.93$
|657>   Q  -1.3290  18.59$  11.61$  12.16$
|658> *
|659> 
|660>                          ****END OF INPUT****
================================================================================

                     *******************************
                     * Energy+Gradient Calculation *
                     *******************************

---------------------------------
CARTESIAN COORDINATES (ANGSTROEM)
---------------------------------
  C      9.790000   11.580000   10.090000
  H      9.340000   10.720000   10.590000
  H      9.130000   11.780000    9.230000
  C     11.260000   11.240000    9.760000
  H     11.380000   10.840000    8.720000
  H     11.850000   12.220000    9.660000
  C     12.010000   10.350000   10.850000
  H     13.110000   10.350000   10.740000
  H     11.720000    9.270000   10.780000
  C     11.880000   10.750000   12.300000
  H     10.840000   10.940000   12.440000
  H     12.440000   11.730000   12.490000
  O     12.430000    9.650000   13.120000
  H     11.980000    8.840000   12.890000
  O      9.690000   12.730000   11.060000
  H      8.730000   13.000000   11.100000
  O     11.940000   12.460000    6.640000
  H     11.750000   12.030000    5.840000
  H     11.130000   12.820000    6.970000
  O      8.300000    8.300000   11.360000
  H      8.550000    8.320000   10.430000
  H      7.480000    7.760000   11.310000
  O     13.270000   13.460000   13.770000
  H     14.030000   13.230000   13.280000
  H     13.260000   12.840000   14.530000
  O     11.070000    9.090000   15.430000
  H     10.170000    8.860000   15.080000
  H     11.600000    9.050000   14.640000
  O     15.100000    9.670000   13.090000
  H     15.200000    8.950000   12.400000
  H     14.120000    9.790000   13.210000
  O     11.220000   14.590000   12.650000
  H     10.890000   13.800000   12.190000
  H     11.850000   14.160000   13.240000
  O      6.800000   13.190000   11.170000
  H      6.800000   12.260000   11.030000
  H      6.780000   13.680000   10.340000
  O     17.240000    8.020000   14.220000
  H     16.300000    8.340000   14.280000
  H     17.210000    7.490000   13.400000
  O      8.980000   13.510000    7.220000
  H      8.690000   12.610000    7.430000
  H      8.700000   13.620000    6.290000
  O     15.540000   12.230000   11.930000
  H     16.400000   12.460000   12.200000
  H     15.350000   11.400000   12.390000
  O     14.460000   12.370000    5.240000
  H     14.370000   12.740000    4.330000
  H     13.660000   12.500000    5.840000
  O     10.910000   11.210000    3.840000
  H     11.320000   11.730000    3.070000
  H     11.050000   10.230000    3.600000
  O     15.440000    7.710000   10.900000
  H     15.570000    6.910000   11.420000
  H     16.320000    8.070000   10.940000
  O      6.390000    6.280000   11.380000
  H      6.730000    5.740000   12.100000
  H      5.690000    6.950000   11.670000
  O     15.000000   15.360000   15.240000
  H     14.200000   15.250000   14.800000
  H     15.630000   15.970000   14.730000
  O     11.710000    7.020000   12.460000
  H     11.000000    6.620000   13.010000
  H     12.550000    6.870000   12.990000
  O     11.640000    8.970000   18.530000
  H     11.850000    8.050000   18.750000
  H     11.910000    9.050000   17.610000
  O      7.970000   10.970000    7.600000
  H      8.200000   10.710000    6.680000
  H      7.050000   10.780000    7.700000
  O     11.180000    6.160000    9.570000
  H     11.310000    6.440000   10.460000
  H     10.240000    5.800000    9.530000
  O      8.850000    7.980000   13.980000
  H      8.630000    8.040000   13.050000
  H      8.920000    7.020000   14.020000
  O     11.340000   11.970000   15.700000
  H     11.010000   11.070000   15.720000
  H     11.010000   12.350000   16.470000
  O      6.270000   10.430000   11.780000
  H      7.030000    9.810000   11.600000
  H      5.550000    9.840000   12.090000
  O      9.470000    8.620000    8.630000
  H      9.490000    9.130000    7.810000
  H     10.200000    8.040000    8.500000
  O     10.400000   15.790000    7.900000
  H     10.010000   14.900000    7.650000
  H      9.630000   16.380000    7.560000
  Q     12.350000   10.840000    0.040000
  Q     13.030000    9.720000    0.880000
  Q     12.380000   10.260000    0.640000
  Q     18.410000    5.540000   13.030000
  Q     20.060000    5.750000   13.070000
  Q     19.220000    5.610000   13.360000
  Q     14.380000    5.990000    2.550000
  Q     13.110000    6.370000    1.700000
  Q     13.840000    6.500000    2.150000
  Q     19.120000    8.060000    5.540000
  Q     19.110000    7.430000    4.300000
  Q     19.280000    7.420000    5.100000
  Q      8.110000    2.980000   18.390000
  Q      6.670000    3.070000   17.980000
  Q      7.500000    3.080000   17.840000
  Q     20.350000    6.590000    7.820000
  Q     20.370000    6.320000    6.330000
  Q     20.620000    6.190000    7.120000
  Q      7.330000   19.700000   15.120000
  Q      8.270000   18.480000   15.030000
  Q      7.990000   19.250000   14.830000
  Q     15.800000   11.930000    1.870000
  Q     16.970000   10.970000    2.150000
  Q     16.300000   11.250000    1.730000
  Q     12.970000   17.450000   16.800000
  Q     13.810000   16.110000   16.720000
  Q     13.140000   16.610000   16.910000
  Q      7.100000    7.160000   20.030000
  Q      5.680000    6.470000   19.620000
  Q      6.270000    6.870000   20.110000
  Q     16.590000    6.860000    5.470000
  Q     16.550000    7.700000    4.230000
  Q     16.410000    7.540000    5.020000
  Q     12.960000   17.650000   20.220000
  Q     13.830000   16.380000   19.890000
  Q     13.430000   16.950000   20.380000
  Q     18.760000   16.750000   16.150000
  Q     19.120000   15.870000   17.380000
  Q     19.250000   16.210000   16.620000
  Q     14.130000   18.730000   10.750000
  Q     13.500000   20.060000   11.200000
  Q     14.030000   19.410000   11.240000
  Q     14.170000    1.490000    7.000000
  Q     15.610000    1.790000    6.470000
  Q     14.970000    1.320000    6.760000
  Q      4.600000   11.480000    8.280000
  Q      5.440000   11.790000    7.060000
  Q      5.060000   11.290000    7.590000
  Q     11.780000   16.090000    6.440000
  Q     11.950000   16.250000    5.020000
  Q     12.240000   16.100000    5.770000
  Q     12.970000    4.070000   10.740000
  Q     12.750000    5.130000   11.950000
  Q     12.800000    4.380000   11.540000
  Q      6.400000    6.470000   16.330000
  Q      5.930000    7.860000   16.100000
  Q      5.830000    7.050000   16.190000
  Q      2.940000    7.380000    9.510000
  Q      2.940000    8.840000    8.750000
  Q      2.870000    8.250000    9.400000
  Q     18.860000    9.380000   14.230000
  Q     20.380000    9.660000   14.190000
  Q     19.590000    9.820000   14.420000
  Q     17.070000    9.390000    9.900000
  Q     17.710000    9.860000   11.250000
  Q     17.530000    9.310000   10.660000
  Q     10.630000   16.790000    9.380000
  Q     10.230000   17.130000   10.990000
  Q     10.440000   17.250000   10.140000
  Q     12.570000   10.330000   19.650000
  Q     13.470000   11.540000   19.420000
  Q     12.840000   11.090000   19.820000
  Q      7.640000   13.740000   18.160000
  Q      7.940000   13.830000   16.580000
  Q      7.490000   13.720000   17.320000
  Q      0.530000   14.240000   11.840000
  Q      0.020000   14.710000   13.230000
  Q      0.590000   14.440000   12.660000
  Q      6.610000   10.250000   15.370000
  Q      7.530000    8.900000   15.060000
  Q      6.980000    9.460000   15.480000
  Q     15.550000    8.960000   19.580000
  Q     14.760000    8.610000   20.940000
  Q     15.050000    8.480000   20.140000
  Q     10.270000   16.050000   12.810000
  Q      8.930000   16.730000   13.000000
  Q      9.710000   16.690000   12.740000
  Q     14.620000    8.160000    1.290000
  Q     15.370000    9.470000    1.180000
  Q     14.780000    8.900000    0.980000
  Q     16.860000    2.730000   10.070000
  Q     16.510000    2.380000   11.580000
  Q     16.460000    2.770000   10.840000
  Q     13.770000   17.590000    6.050000
  Q     13.190000   18.810000    6.750000
  Q     13.750000   18.390000    6.280000
  Q     14.350000    4.160000    9.000000
  Q     14.720000    3.030000    9.890000
  Q     14.210000    3.450000    9.400000
  Q     13.210000    4.180000   21.320000
  Q     11.740000    4.610000   21.130000
  Q     12.540000    4.430000   20.880000
  Q      1.360000   12.500000   13.480000
  Q      2.460000   12.090000   14.590000
  Q      1.720000   12.000000   14.090000
  Q     -0.050000   11.100000    9.130000
  Q      1.380000   11.470000    8.900000
  Q      0.680000   11.070000    8.730000
  Q      3.640000   16.910000   11.810000
  Q      4.480000   16.430000   13.120000
  Q      4.220000   16.450000   12.280000
  Q     21.100000   13.170000    9.970000
  Q     20.600000   14.550000   10.550000
  Q     21.180000   13.960000   10.310000
  Q     18.440000   15.580000    7.190000
  Q     19.330000   16.230000    8.290000
  Q     19.170000   15.690000    7.660000
  Q     12.930000    6.570000   15.970000
  Q     12.790000    5.980000   17.280000
  Q     12.570000    6.090000   16.520000
  Q      0.940000   14.660000    5.810000
  Q      1.930000   13.660000    5.200000
  Q      1.690000   14.360000    5.600000
  Q     14.610000    8.990000   15.780000
  Q     15.210000    7.680000   16.490000
  Q     14.760000    8.160000   15.880000
  Q      3.810000   13.340000   13.770000
  Q      4.910000   12.750000   14.610000
  Q      4.200000   13.130000   14.470000
  Q     14.170000    5.470000   14.060000
  Q     14.420000    6.920000   14.470000
  Q     14.010000    6.290000   14.040000
  Q     17.200000   12.560000   16.370000
  Q     16.090000   13.530000   15.840000
  Q     16.610000   12.840000   15.820000
  Q     14.660000    6.130000    8.090000
  Q     15.200000    6.830000    9.260000
  Q     15.270000    6.270000    8.620000
  Q     19.570000   11.930000    8.900000
  Q     19.670000   11.470000   10.440000
  Q     19.960000   11.690000    9.640000
  Q      7.720000    4.500000   16.620000
  Q      8.050000    5.190000   15.440000
  Q      7.810000    5.200000   16.220000
  Q      9.860000   19.100000    9.980000
  Q      8.550000   19.660000    9.310000
  Q      9.340000   19.700000    9.650000
  Q     16.510000   12.660000    5.730000
  Q     18.010000   12.580000    6.140000
  Q     17.300000   12.400000    5.670000
  Q     12.480000   19.070000   14.980000
  Q     13.620000   19.470000   16.040000
  Q     12.860000   19.200000   15.770000
  Q     10.970000   19.340000   16.510000
  Q      9.760000   18.510000   17.050000
  Q     10.380000   19.070000   17.110000
  Q     -0.450000    8.290000    9.520000
  Q      1.070000    8.500000    9.930000
  Q      0.230000    8.340000   10.040000
  Q     10.890000    5.760000   15.410000
  Q     10.290000    4.940000   14.190000
  Q     10.450000    5.640000   14.680000
  Q      0.840000   10.240000   13.250000
  Q      0.320000    9.170000   12.140000
  Q      0.310000    9.580000   12.890000
  Q     14.220000   11.550000   16.720000
  Q     15.440000   11.420000   15.750000
  Q     14.740000   11.140000   16.180000
  Q      3.930000   14.630000   11.700000
  Q      5.010000   13.630000   11.260000
  Q      4.280000   13.850000   11.590000
  Q     13.480000   13.090000    2.480000
  Q     14.820000   13.930000    2.360000
  Q     14.320000   13.270000    2.560000
  Q     15.530000   16.260000   18.330000
  Q     15.890000   15.180000   19.240000
  Q     15.420000   15.520000   18.660000
  Q     18.180000   10.270000    4.240000
  Q     19.130000   10.840000    3.220000
  Q     18.490000   10.390000    3.470000
  Q     16.360000    6.190000    2.970000
  Q     16.970000    6.960000    1.690000
  Q     16.790000    6.840000    2.510000
  Q     16.620000   18.140000    9.370000
  Q     16.300000   19.180000    8.280000
  Q     16.320000   18.430000    8.620000
  Q      8.230000   20.470000   12.870000
  Q      8.490000   20.260000   11.380000
  Q      8.070000   20.560000   12.070000
  Q      9.620000    2.570000   13.650000
  Q     11.210000    2.850000   13.920000
  Q     10.350000    2.950000   14.000000
  Q      3.290000   12.210000   10.330000
  Q      3.310000   13.170000    9.100000
  Q      3.360000   12.400000    9.500000
  Q      5.490000   15.650000    3.480000
  Q      6.440000   16.320000    2.480000
  Q      6.200000   15.740000    3.030000
  Q     11.040000   18.240000   13.030000
  Q     11.920000   19.590000   13.000000
  Q     11.700000   18.810000   13.260000
  Q     17.010000   18.210000   15.680000
  Q     17.310000   17.560000   14.330000
  Q     17.510000   17.820000   15.130000
  Q     21.210000   11.200000    5.840000
  Q     20.610000   12.470000    6.570000
  Q     20.600000   11.700000    6.210000
  Q      2.950000   16.930000    7.740000
  Q      2.690000   18.300000    7.090000
  Q      2.680000   17.750000    7.710000
  Q     10.020000    9.690000    0.230000
  Q      8.990000    8.740000   -0.490000
  Q      9.310000    9.180000    0.160000
  Q     13.380000   17.370000   12.730000
  Q     13.110000   15.790000   12.510000
  Q     13.570000   16.540000   12.620000
  Q      6.120000   16.610000   11.230000
  Q      7.580000   16.640000   11.480000
  Q      6.910000   16.700000   11.000000
  Q     16.200000    4.040000   15.030000
  Q     15.430000    3.490000   13.840000
  Q     15.560000    4.020000   14.500000
  Q      2.150000   10.990000   17.800000
  Q      3.470000   11.620000   17.720000
  Q      2.660000   11.630000   17.830000
  Q     10.480000   22.160000   15.200000
  Q      9.340000   21.230000   15.050000
  Q      9.910000   21.780000   14.760000
  Q     14.640000   18.090000    3.780000
  Q     14.150000   19.410000    4.070000
  Q     14.240000   18.750000    3.570000
  Q      9.800000   12.950000    4.140000
  Q      8.330000   13.230000    3.820000
  Q      9.110000   13.410000    4.130000
  Q     14.190000    3.940000   17.340000
  Q     14.600000    3.770000   18.740000
  Q     14.730000    3.800000   17.940000
  Q      1.610000   14.010000    7.660000
  Q      1.100000   14.620000    8.910000
  Q      1.680000   14.400000    8.370000
  Q      2.230000   11.430000    4.660000
  Q      3.480000   12.170000    4.500000
  Q      2.680000   12.010000    4.320000
  Q     16.850000   17.500000    3.620000
  Q     16.140000   16.160000    3.520000
  Q     16.420000   16.840000    3.900000
  Q      6.380000    5.320000    3.980000
  Q      7.670000    5.100000    3.290000
  Q      6.950000    5.490000    3.430000
  Q      9.500000   -0.210000    8.990000
  Q      9.130000    0.640000    7.800000
  Q      9.310000    0.530000    8.620000
  Q      6.620000   14.800000   13.050000
  Q      6.620000   16.250000   13.750000
  Q      6.950000   15.570000   13.280000
  Q     14.750000   10.390000    5.600000
  Q     15.240000    8.950000    5.600000
  Q     14.810000    9.610000    5.900000
  Q      7.510000    0.630000    9.590000
  Q      7.300000    0.040000   10.970000
  Q      7.180000    0.630000   10.380000
  Q     12.420000    5.660000    4.340000
  Q     11.600000    4.300000    4.910000
  Q     12.290000    4.840000    4.680000
  Q     17.770000    2.500000    5.590000
  Q     17.190000    3.890000    6.360000
  Q     17.260000    3.040000    6.090000
  Q     10.450000    2.330000   17.580000
  Q     10.560000    2.240000   16.010000
  Q     10.340000    1.930000   16.800000
  Q     16.140000   11.080000    8.220000
  Q     16.020000    9.910000    7.440000
  Q     16.390000   10.350000    7.990000
  Q     13.710000    1.480000   17.200000
  Q     14.800000    0.690000   18.130000
  Q     14.110000    0.810000   17.560000
  Q      8.490000    1.570000   11.240000
  Q      9.880000    2.040000   10.920000
  Q      9.170000    2.030000   11.360000
  Q      1.910000   17.130000   15.230000
  Q      0.980000   18.190000   15.530000
  Q      1.650000   17.900000   15.150000
  Q     17.310000   13.540000   13.920000
  Q     18.540000   14.300000   13.330000
  Q     17.770000   13.900000   13.300000
  Q      4.790000   18.950000   11.930000
  Q      6.020000   19.820000   12.250000
  Q      5.260000   19.440000   12.420000
  Q     19.240000    9.370000   17.640000
  Q     19.130000   10.110000   16.240000
  Q     18.910000    9.900000   17.070000
  Q      3.400000    5.760000   14.210000
  Q      4.310000    6.920000   14.730000
  Q      3.670000    6.570000   14.280000
  Q      0.950000   10.530000    6.880000
  Q      0.620000    9.910000    5.430000
  Q      1.070000   10.330000    6.040000
  Q     12.780000    2.710000   12.630000
  Q     12.690000    1.150000   13.030000
  Q     12.850000    2.010000   13.160000
  Q      5.850000   17.690000   15.510000
  Q      6.130000   18.270000   14.090000
  Q      5.970000   17.650000   14.680000
  Q      8.590000    8.000000    5.680000
  Q      8.230000    6.920000    4.650000
  Q      8.560000    7.210000    5.370000
  Q     14.120000   17.670000    8.720000
  Q     12.980000   16.930000    9.540000
  Q     13.430000   17.590000    9.240000
  Q      5.040000    1.850000    8.080000
  Q      4.910000    3.060000    8.970000
  Q      4.940000    2.660000    8.230000
  Q      5.230000   14.880000    7.760000
  Q      3.610000   14.960000    8.010000
  Q      4.410000   15.210000    7.750000
  Q     12.430000    7.540000    6.660000
  Q     12.680000    9.050000    6.650000
  Q     12.280000    8.340000    6.430000
  Q      4.520000   15.880000    5.860000
  Q      3.460000   15.200000    5.100000
  Q      4.190000   15.590000    5.150000
  Q      8.290000    4.170000   12.720000
  Q      7.260000    3.900000   13.730000
  Q      7.750000    4.370000   13.270000
  Q     13.000000    5.920000   19.620000
  Q     13.960000    7.080000   19.300000
  Q     13.210000    6.690000   19.270000
  Q     16.870000   10.990000   20.270000
  Q     16.620000   11.170000   21.810000
  Q     16.740000   11.410000   21.000000
  Q      8.770000    8.580000   19.180000
  Q      9.560000    7.420000   19.380000
  Q      8.910000    7.880000   19.590000
  Q      8.480000   14.310000   14.290000
  Q      9.710000   13.380000   14.780000
  Q      8.920000   13.700000   14.770000
  Q     19.700000    8.730000    7.850000
  Q     19.160000    8.390000    9.300000
  Q     19.580000    8.250000    8.550000
  Q     11.390000   13.010000    1.340000
  Q     11.330000   14.110000    2.510000
  Q     11.580000   13.380000    2.100000
  Q     15.370000   10.120000   17.840000
  Q     16.860000   10.110000   17.930000
  Q     16.090000   10.110000   18.260000
  Q      1.820000   14.910000   14.210000
  Q      3.250000   14.890000   14.950000
  Q      2.490000   15.200000   14.680000
  Q      5.310000   13.630000    5.480000
  Q      5.800000   12.580000    4.540000
  Q      5.490000   12.860000    5.230000
  Q     12.950000   22.200000    9.460000
  Q     12.010000   20.970000    9.230000
  Q     12.330000   21.620000    9.670000
  Q     19.930000   15.400000   14.610000
  Q     19.940000   16.380000   13.440000
  Q     20.000000   15.630000   13.800000
  Q      6.670000   11.020000    3.050000
  Q      6.890000   12.250000    2.080000
  Q      6.710000   11.860000    2.860000
  Q      4.320000    6.820000    7.370000
  Q      3.960000    5.660000    8.250000
  Q      4.480000    6.140000    7.810000
  Q      7.530000    4.610000    7.460000
  Q      6.710000    3.220000    7.220000
  Q      7.390000    3.740000    7.210000
  Q     10.240000   16.660000    3.140000
  Q      9.820000   15.080000    3.520000
  Q     10.340000   15.780000    3.300000
  Q      6.240000    2.940000   10.840000
  Q      5.490000    4.130000   11.160000
  Q      5.610000    3.410000   10.790000
  Q      7.410000    8.720000    2.740000
  Q      6.090000    8.940000    3.650000
  Q      6.910000    9.080000    3.340000
  Q     16.890000   15.700000   12.720000
  Q     15.580000   16.670000   12.660000
  Q     16.410000   16.430000   12.870000
  Q      6.240000   19.560000    8.670000
  Q      6.600000   18.470000    9.690000
  Q      6.780000   19.030000    9.060000
  Q     11.080000   21.600000   13.060000
  Q     11.700000   21.670000   11.640000
  Q     11.690000   21.430000   12.460000
  Q      5.600000   11.070000   18.840000
  Q      6.190000   12.290000   17.990000
  Q      5.590000   11.740000   18.260000
  Q      1.690000   17.590000   13.230000
  Q      1.190000   16.660000   12.250000
  Q      1.430000   17.410000   12.500000
  Q      9.340000   16.230000   17.090000
  Q      7.860000   16.830000   16.980000
  Q      8.720000   16.800000   16.900000
  Q     18.880000   14.560000    3.340000
  Q     18.670000   13.820000    4.580000
  Q     19.130000   14.040000    3.940000
  Q      9.670000    9.690000   17.670000
  Q      8.130000    9.800000   17.360000
  Q      8.870000    9.990000   17.740000
  Q      6.520000   11.770000   13.530000
  Q      7.390000   12.310000   14.670000
  Q      6.680000   12.100000   14.280000
  Q     16.380000    0.980000   13.430000
  Q     17.750000    1.810000   13.210000
  Q     16.910000    1.700000   13.390000
  Q      9.470000   12.480000   21.850000
  Q     10.360000   12.880000   20.700000
  Q     10.040000   12.970000   21.460000
  Q      9.510000   10.490000    4.890000
  Q      8.180000    9.890000    4.590000
  Q      8.810000   10.090000    5.100000
  Q      9.180000    5.720000   17.570000
  Q     10.610000    6.050000   17.230000
  Q      9.970000    5.980000   17.740000
  Q      9.570000    8.070000    1.760000
  Q     10.110000    7.690000    3.070000
  Q      9.550000    7.650000    2.470000
  Q     11.670000    1.890000    5.710000
  Q     11.540000    1.080000    4.430000
  Q     11.420000    1.740000    4.930000
  Q     18.530000   13.900000    8.130000
  Q     17.560000   12.580000    8.340000
  Q     18.250000   13.080000    8.090000
  Q     11.410000   15.780000   17.890000
  Q     10.960000   14.350000   18.410000
  Q     10.850000   15.150000   18.200000
  Q     16.870000    6.550000   17.380000
  Q     15.820000    5.640000   17.910000
  Q     16.100000    6.360000   17.640000
  Q     19.620000   12.900000   16.410000
  Q     19.220000   11.820000   17.350000
  Q     19.200000   12.590000   17.030000
  Q      9.940000   11.580000   18.200000
  Q     11.330000   12.010000   18.860000
  Q     10.570000   12.120000   18.460000
  Q      5.510000   14.260000   17.300000
  Q      4.360000   14.690000   18.350000
  Q      4.840000   14.750000   17.620000
  Q     16.730000    2.110000   15.600000
  Q     16.330000    2.720000   16.910000
  Q     16.840000    2.320000   16.380000
  Q      8.420000    3.960000   10.060000
  Q      8.010000    5.500000    9.980000
  Q      8.540000    4.800000   10.190000
  Q     16.590000   16.850000    7.350000
  Q     16.630000   16.530000    5.950000
  Q     16.700000   16.320000    6.720000
  Q      4.230000    9.650000    7.150000
  Q      2.940000    9.380000    6.600000
  Q      3.680000    9.150000    6.880000
  Q      4.000000    8.280000   11.210000
  Q      4.180000    7.550000   12.580000
  Q      4.380000    8.100000   11.940000
  Q      9.380000    4.180000    6.880000
  Q      9.460000    5.480000    6.070000
  Q      9.730000    4.740000    6.330000
  Q     18.050000    6.880000   15.360000
  Q     19.220000    6.580000   16.160000
  Q     18.400000    6.560000   16.010000
  Q      7.370000    2.560000   15.700000
  Q      7.140000    1.280000   14.870000
  Q      7.200000    2.090000   15.000000
  Q     15.220000   12.320000   18.460000
  Q     14.440000   13.610000   18.140000
  Q     14.540000   12.780000   18.340000
  Q      6.050000   18.070000   17.950000
  Q      5.460000   16.700000   17.460000
  Q      5.930000   17.430000   17.410000
  Q      7.690000    6.570000    7.280000
  Q      6.360000    6.220000    8.080000
  Q      7.200000    6.210000    7.890000
  Q     18.040000    9.680000    6.980000
  Q     19.330000   10.400000    6.520000
  Q     18.770000    9.770000    6.580000
  Q     16.690000    5.890000    7.240000
  Q     18.150000    6.080000    6.660000
  Q     17.390000    5.690000    6.830000
  Q      7.800000   16.400000    3.740000
  Q      8.160000   17.930000    3.620000
  Q      8.120000   17.140000    3.980000
  Q      6.760000   15.340000    9.240000
  Q      7.460000   14.440000    8.360000
  Q      6.820000   14.680000    8.760000
  Q     11.010000   18.650000    4.480000
  Q     12.200000   18.270000    3.590000
  Q     11.390000   18.460000    3.760000
  Q     15.230000   15.270000    7.170000
  Q     13.680000   15.070000    6.930000
  Q     14.420000   15.030000    7.370000
  Q     10.320000    4.460000   18.720000
  Q     11.350000    3.530000   19.470000
  Q     10.630000    3.730000   19.040000
  Q     15.470000   12.830000    9.860000
  Q     15.140000   13.490000    8.450000
  Q     15.570000   13.000000    9.010000
  Q     12.300000    5.410000    7.990000
  Q     12.570000    5.190000    6.490000
  Q     12.740000    5.490000    7.280000
  Q      4.200000    8.470000    5.130000
  Q      4.620000    7.270000    4.110000
  Q      4.530000    8.070000    4.400000
  Q     10.870000   19.420000    7.660000
  Q     12.020000   18.880000    8.530000
  Q     11.680000   19.350000    7.910000
  Q      9.270000   18.560000    6.050000
  Q      9.370000   19.860000    5.390000
  Q      9.700000   19.250000    5.800000
  Q      3.240000   19.430000   10.670000
  Q      3.550000   18.400000    9.550000
  Q      3.740000   18.880000   10.230000
  Q      1.660000    5.350000    9.340000
  Q      2.670000    4.640000   10.190000
  Q      2.440000    5.210000    9.630000
  Q     12.790000    2.300000    8.130000
  Q     11.630000    1.290000    8.090000
  Q     12.290000    1.740000    7.770000
  Q      5.000000    3.580000    5.110000
  Q      5.560000    4.640000    6.040000
  Q      5.210000    4.370000    5.360000
  Q      7.850000   16.930000    6.180000
  Q      7.560000   17.690000    7.590000
  Q      7.990000   17.230000    6.990000
  Q     12.490000    8.320000    3.020000
  Q     11.990000    8.390000    4.530000
  Q     11.930000    8.450000    3.640000
  Q     13.290000    2.780000   15.070000
  Q     12.780000    4.180000   15.580000
  Q     12.880000    3.350000   15.600000
  Q     16.690000    4.690000   11.550000
  Q     16.340000    5.090000   12.930000
  Q     16.690000    5.220000   12.200000
  Q     15.950000   19.240000   11.310000
  Q     17.070000   18.190000   11.740000
  Q     16.740000   18.860000   11.340000
  Q      8.130000   10.680000    0.370000
  Q      7.080000   11.670000   -0.230000
  Q      7.740000   11.430000    0.260000
  Q      8.090000    3.140000    3.590000
  Q      9.000000    3.940000    4.550000
  Q      8.740000    3.640000    3.810000
  Q     19.110000   11.390000   12.820000
  Q     18.330000   12.400000   11.930000
  Q     18.590000   11.610000   12.160000

----------------------------
CARTESIAN COORDINATES (A.U.)
----------------------------
  NO LB      ZA    FRAG     MASS         X           Y           Z
   0 C     6.0000    0    12.011   18.500419   21.883029   19.067337
   1 H     1.0000    0     1.008   17.650042   20.257864   20.012200
   2 H     1.0000    0     1.008   17.253200   22.260974   17.442172
   3 C     6.0000    0    12.011   21.278316   21.240522   18.443727
   4 H     1.0000    0     1.008   21.505083   20.484631   16.478412
   5 H     1.0000    0     1.008   22.393255   23.092453   18.254754
   6 C     6.0000    0    12.011   22.695611   19.558665   20.503529
   7 H     1.0000    0     1.008   24.774310   19.558665   20.295659
   8 H     1.0000    0     1.008   22.147590   17.517761   20.371248
   9 C     6.0000    0    12.011   22.449946   20.314556   23.243631
  10 H     1.0000    0     1.008   20.484631   20.673604   23.508193
  11 H     1.0000    0     1.008   23.508193   22.166488   23.602679
  12 O     8.0000    0    15.999   23.489296   18.235857   24.793207
  13 H     1.0000    0     1.008   22.638919   16.705179   24.358570
  14 O     8.0000    0    15.999   18.311446   24.056214   20.900371
  15 H     1.0000    0     1.008   16.497309   24.566440   20.975960
  16 O     8.0000    0    15.999   22.563330   23.545988   12.547782
  17 H     1.0000    0     1.008   22.204282   22.733405   11.036001
  18 H     1.0000    0     1.008   21.032652   24.226289   13.171391
  19 O     8.0000    0    15.999   15.684727   15.684727   21.467289
  20 H     1.0000    0     1.008   16.157158   15.722521   19.709844
  21 H     1.0000    0     1.008   14.135151   14.664275   21.372803
  22 O     8.0000    0    15.999   25.076666   25.435714   26.021529
  23 H     1.0000    0     1.008   26.512858   25.001077   25.095563
  24 H     1.0000    0     1.008   25.057769   24.264084   27.457721
  25 O     8.0000    0    15.999   20.919268   17.177611   29.158474
  26 H     1.0000    0     1.008   19.218515   16.742974   28.497070
  27 H     1.0000    0     1.008   21.920823   17.102022   27.665591
  28 O     8.0000    0    15.999   28.534865   18.273652   24.736515
  29 H     1.0000    0     1.008   28.723837   16.913049   23.432604
  30 H     1.0000    0     1.008   26.682933   18.500419   24.963282
  31 O     8.0000    0    15.999   21.202727   27.571104   23.905036
  32 H     1.0000    0     1.008   20.579118   26.078221   23.035762
  33 H     1.0000    0     1.008   22.393255   26.758522   25.019974
  34 O     8.0000    0    15.999   12.850138   24.925488   21.108241
  35 H     1.0000    0     1.008   12.850138   23.168042   20.843679
  36 H     1.0000    0     1.008   12.812343   25.851454   19.539768
  37 O     8.0000    0    15.999   32.578879   15.155604   26.871906
  38 H     1.0000    0     1.008   30.802536   15.760316   26.985289
  39 H     1.0000    0     1.008   32.522187   14.154049   25.322330
  40 O     8.0000    0    15.999   16.969741   25.530200   13.643823
  41 H     1.0000    0     1.008   16.421720   23.829447   14.040665
  42 H     1.0000    0     1.008   16.440617   25.738070   11.886377
  43 O     8.0000    0    15.999   29.366344   23.111351   22.544433
  44 H     1.0000    0     1.008   30.991509   23.545988   23.054659
  45 H     1.0000    0     1.008   29.007296   21.542878   23.413707
  46 O     8.0000    0    15.999   27.325440   23.375912    9.902165
  47 H     1.0000    0     1.008   27.155365   24.075111    8.182514
  48 H     1.0000    0     1.008   25.813659   23.621577   11.036001
  49 O     8.0000    0    15.999   20.616912   21.183830    7.256548
  50 H     1.0000    0     1.008   21.391700   22.166488    5.801459
  51 H     1.0000    0     1.008   20.881474   19.331898    6.803014
  52 O     8.0000    0    15.999   29.177372   14.569788   20.598015
  53 H     1.0000    0     1.008   29.423036   13.058008   21.580672
  54 H     1.0000    0     1.008   30.840331   15.250090   20.673604
  55 O     8.0000    0    15.999   12.075350   11.867480   21.505083
  56 H     1.0000    0     1.008   12.717857   10.847028   22.865686
  57 H     1.0000    0     1.008   10.752542   13.133597   22.053104
  58 O     8.0000    0    15.999   28.345892   29.026193   28.799426
  59 H     1.0000    0     1.008   26.834111   28.818324   27.967947
  60 H     1.0000    0     1.008   29.536419   30.178926   27.835666
  61 O     8.0000    0    15.999   22.128693   13.265877   23.545988
  62 H     1.0000    0     1.008   20.786987   12.509987   24.585337
  63 H     1.0000    0     1.008   23.716063   12.982419   24.547542
  64 O     8.0000    0    15.999   21.996412   16.950843   35.016625
  65 H     1.0000    0     1.008   22.393255   15.212295   35.432365
  66 H     1.0000    0     1.008   22.506638   17.102022   33.278077
  67 O     8.0000    0    15.999   15.061117   20.730296   14.361919
  68 H     1.0000    0     1.008   15.495754   20.238967   12.623371
  69 H     1.0000    0     1.008   13.322569   20.371248   14.550891
  70 O     8.0000    0    15.999   21.127138   11.640713   18.084679
  71 H     1.0000    0     1.008   21.372803   12.169836   19.766535
  72 H     1.0000    0     1.008   19.350796   10.960412   18.009090
  73 O     8.0000    0    15.999   16.724076   15.080015   26.418371
  74 H     1.0000    0     1.008   16.308337   15.193398   24.660926
  75 H     1.0000    0     1.008   16.856357   13.265877   26.493960
  76 O     8.0000    0    15.999   21.429494   22.620022   29.668700
  77 H     1.0000    0     1.008   20.805885   20.919268   29.706495
  78 H     1.0000    0     1.008   20.805885   23.338118   31.123789
  79 O     8.0000    0    15.999   11.848583   19.709844   22.260974
  80 H     1.0000    0     1.008   13.284775   18.538213   21.920823
  81 H     1.0000    0     1.008   10.487980   18.594905   22.846789
  82 O     8.0000    0    15.999   17.895706   16.289439   16.308337
  83 H     1.0000    0     1.008   17.933501   17.253200   14.758761
  84 H     1.0000    0     1.008   19.275207   15.193398   16.062672
  85 O     8.0000    0    15.999   19.653152   29.838776   14.928836
  86 H     1.0000    0     1.008   18.916159   28.156919   14.456405
  87 H     1.0000    0     1.008   18.198063   30.953714   14.286330
  88 Q     0.6645    0     0.000   23.338118   20.484631    0.075589
  89 Q     0.6645    0     0.000   24.623132   18.368138    1.662959
  90 Q    -1.3290    0     0.000   23.394810   19.388590    1.209425
  91 Q     0.6645    0     0.000   34.789858   10.469083   24.623132
  92 Q     0.6645    0     0.000   37.907906   10.865925   24.698721
  93 Q    -1.3290    0     0.000   36.320536   10.601364   25.246741
  94 Q     0.6645    0     0.000   27.174262   11.319460    4.818802
  95 Q     0.6645    0     0.000   24.774310   12.037555    3.212534
  96 Q    -1.3290    0     0.000   26.153810   12.283220    4.062911
  97 Q     0.6645    0     0.000   36.131564   15.231193   10.469083
  98 Q     0.6645    0     0.000   36.112666   14.040665    8.125822
  99 Q    -1.3290    0     0.000   36.433920   14.021768    9.637603
 100 Q     0.6645    0     0.000   15.325679    5.631384   34.752064
 101 Q     0.6645    0     0.000   12.604473    5.801459   33.977276
 102 Q    -1.3290    0     0.000   14.172946    5.820356   33.712714
 103 Q     0.6645    0     0.000   38.455927   12.453295   14.777658
 104 Q     0.6645    0     0.000   38.493721   11.943069   11.961966
 105 Q    -1.3290    0     0.000   38.966153   11.697405   13.454850
 106 Q     0.6645    0     0.000   13.851693   37.227605   28.572659
 107 Q     0.6645    0     0.000   15.628035   34.922139   28.402584
 108 Q    -1.3290    0     0.000   15.098912   36.377228   28.024639
 109 Q     0.6645    0     0.000   29.857673   22.544433    3.533788
 110 Q     0.6645    0     0.000   32.068652   20.730296    4.062911
 111 Q    -1.3290    0     0.000   30.802536   21.259419    3.269226
 112 Q     0.6645    0     0.000   24.509748   32.975721   31.747399
 113 Q     0.6645    0     0.000   26.097118   30.443488   31.596221
 114 Q    -1.3290    0     0.000   24.831001   31.388351   31.955269
 115 Q     0.6645    0     0.000   13.417056   13.530439   37.851214
 116 Q     0.6645    0     0.000   10.733644   12.226528   37.076427
 117 Q    -1.3290    0     0.000   11.848583   12.982419   38.002393
 118 Q     0.6645    0     0.000   31.350557   12.963521   10.336802
 119 Q     0.6645    0     0.000   31.274968   14.550891    7.993542
 120 Q    -1.3290    0     0.000   31.010406   14.248535    9.486425
 121 Q     0.6645    0     0.000   24.490851   33.353666   38.210262
 122 Q     0.6645    0     0.000   26.134912   30.953714   37.586653
 123 Q    -1.3290    0     0.000   25.379022   32.030858   38.512619
 124 Q     0.6645    0     0.000   35.451262   31.652913   30.519077
 125 Q     0.6645    0     0.000   36.131564   29.989954   32.843440
 126 Q    -1.3290    0     0.000   36.377228   30.632461   31.407248
 127 Q     0.6645    0     0.000   26.701830   35.394570   20.314556
 128 Q     0.6645    0     0.000   25.511303   37.907906   21.164933
 129 Q    -1.3290    0     0.000   26.512858   36.679584   21.240522
 130 Q     0.6645    0     0.000   26.777419    2.815692   13.228083
 131 Q     0.6645    0     0.000   29.498625    3.382610   12.226528
 132 Q    -1.3290    0     0.000   28.289200    2.494438   12.774549
 133 Q     0.6645    0     0.000    8.692740   21.694056   15.646932
 134 Q     0.6645    0     0.000   10.280110   22.279871   13.341467
 135 Q    -1.3290    0     0.000    9.562014   21.335008   14.343021
 136 Q     0.6645    0     0.000   22.260974   30.405693   12.169836
 137 Q     0.6645    0     0.000   22.582227   30.708050    9.486425
 138 Q    -1.3290    0     0.000   23.130248   30.424591   10.903720
 139 Q     0.6645    0     0.000   24.509748    7.691185   20.295659
 140 Q     0.6645    0     0.000   24.094008    9.694295   22.582227
 141 Q    -1.3290    0     0.000   24.188495    8.277000   21.807440
 142 Q     0.6645    0     0.000   12.094247   12.226528   30.859228
 143 Q     0.6645    0     0.000   11.206076   14.853247   30.424591
 144 Q    -1.3290    0     0.000   11.017103   13.322569   30.594666
 145 Q     0.6645    0     0.000    5.555795   13.946179   17.971296
 146 Q     0.6645    0     0.000    5.555795   16.705179   16.535104
 147 Q    -1.3290    0     0.000    5.423514   15.590241   17.763426
 148 Q     0.6645    0     0.000   35.640235   17.725631   26.890803
 149 Q     0.6645    0     0.000   38.512619   18.254754   26.815214
 150 Q    -1.3290    0     0.000   37.019735   18.557111   27.249851
 151 Q     0.6645    0     0.000   32.257625   17.744528   18.708289
 152 Q     0.6645    0     0.000   33.467050   18.632700   21.259419
 153 Q    -1.3290    0     0.000   33.126899   17.593350   20.144481
 154 Q     0.6645    0     0.000   20.087789   31.728502   17.725631
 155 Q     0.6645    0     0.000   19.331898   32.371009   20.768090
 156 Q    -1.3290    0     0.000   19.728741   32.597776   19.161823
 157 Q     0.6645    0     0.000   23.753858   19.520871   37.133119
 158 Q     0.6645    0     0.000   25.454611   21.807440   36.698482
 159 Q    -1.3290    0     0.000   24.264084   20.957063   37.454372
 160 Q     0.6645    0     0.000   14.437508   25.964837   34.317427
 161 Q     0.6645    0     0.000   15.004426   26.134912   31.331659
 162 Q    -1.3290    0     0.000   14.154049   25.927043   32.730057
 163 Q     0.6645    0     0.000    1.001555   26.909700   22.374357
 164 Q     0.6645    0     0.000    0.037795   27.797871   25.001077
 165 Q    -1.3290    0     0.000    1.114938   27.287645   23.923933
 166 Q     0.6645    0     0.000   12.491090   19.369693   29.045091
 167 Q     0.6645    0     0.000   14.229638   16.818563   28.459276
 168 Q    -1.3290    0     0.000   13.190288   17.876809   29.252961
 169 Q     0.6645    0     0.000   29.385241   16.931946   37.000838
 170 Q     0.6645    0     0.000   27.892358   16.270542   39.570865
 171 Q    -1.3290    0     0.000   28.440378   16.024878   38.059084
 172 Q     0.6645    0     0.000   19.407487   30.330104   24.207392
 173 Q     0.6645    0     0.000   16.875254   31.615118   24.566440
 174 Q    -1.3290    0     0.000   18.349241   31.539529   24.075111
 175 Q     0.6645    0     0.000   27.627796   15.420165    2.437747
 176 Q     0.6645    0     0.000   29.045091   17.895706    2.229877
 177 Q    -1.3290    0     0.000   27.930152   16.818563    1.851932
 178 Q     0.6645    0     0.000   31.860783    5.158952   19.029542
 179 Q     0.6645    0     0.000   31.199378    4.497548   21.883029
 180 Q    -1.3290    0     0.000   31.104892    5.234541   20.484631
 181 Q     0.6645    0     0.000   26.021529   33.240283   11.432843
 182 Q     0.6645    0     0.000   24.925488   35.545749   12.755651
 183 Q    -1.3290    0     0.000   25.983734   34.752064   11.867480
 184 Q     0.6645    0     0.000   27.117570    7.861261   17.007535
 185 Q     0.6645    0     0.000   27.816769    5.725870   18.689391
 186 Q    -1.3290    0     0.000   26.853008    6.519555   17.763426
 187 Q     0.6645    0     0.000   24.963282    7.899055   40.288961
 188 Q     0.6645    0     0.000   22.185385    8.711637   39.929913
 189 Q    -1.3290    0     0.000   23.697166    8.371487   39.457482
 190 Q     0.6645    0     0.000    2.570028   23.621577   25.473508
 191 Q     0.6645    0     0.000    4.648726   22.846789   27.571104
 192 Q    -1.3290    0     0.000    3.250329   22.676714   26.626241
 193 Q     0.6645    0     0.000   -0.094486   20.975960   17.253200
 194 Q     0.6645    0     0.000    2.607822   21.675159   16.818563
 195 Q    -1.3290    0     0.000    1.285014   20.919268   16.497309
 196 Q     0.6645    0     0.000    6.878603   31.955269   22.317666
 197 Q     0.6645    0     0.000    8.465973   31.048200   24.793207
 198 Q    -1.3290    0     0.000    7.974644   31.085995   23.205837
 199 Q     0.6645    0     0.000   39.873221   24.887693   18.840570
 200 Q     0.6645    0     0.000   38.928358   27.495515   19.936611
 201 Q    -1.3290    0     0.000   40.024400   26.380577   19.483076
 202 Q     0.6645    0     0.000   34.846550   29.441933   13.587131
 203 Q     0.6645    0     0.000   36.528406   30.670255   15.665830
 204 Q    -1.3290    0     0.000   36.226050   29.649803   14.475302
 205 Q     0.6645    0     0.000   24.434159   12.415501   30.178926
 206 Q     0.6645    0     0.000   24.169597   11.300562   32.654468
[...]
 341   Q   :   -0.110967250   -0.237921419   -0.065303306
 342   Q   :   -0.093717128    0.173659310    0.117031107
 343   Q   :    0.200792051    0.050131764   -0.061938667
 344   Q   :   -0.012530161    0.257362958   -0.109659859
 345   Q   :    0.142137397   -0.202898548   -0.106082741
 346   Q   :   -0.140421146   -0.053135722    0.210711535
 347   Q   :    0.109319955   -0.020440233   -0.246655361
 348   Q   :    0.062905126   -0.211824774    0.196257377
 349   Q   :   -0.190422159    0.224277658    0.044828877
 350   Q   :    0.030889169    0.243012466   -0.096037362
 351   Q   :   -0.188202934   -0.132519673    0.065469114
 352   Q   :    0.159833629   -0.114517579    0.017453825
 353   Q   :    0.154783776   -0.156276946   -0.152783373
 354   Q   :   -0.019566396    0.224963684    0.065484696
 355   Q   :   -0.131622816   -0.077234913    0.081578372
 356   Q   :    0.037112093    0.126095264    0.220765330
 357   Q   :    0.071428755    0.104528320   -0.231064780
 358   Q   :   -0.107985387   -0.240463419    0.008661728
 359   Q   :   -0.104829008    0.278643946    0.079318061
 360   Q   :   -0.148595174   -0.166707882   -0.214561556
 361   Q   :    0.259781243   -0.109985138    0.136681262
 362   Q   :   -0.120557265    0.232973168   -0.112574291
 363   Q   :    0.199764663   -0.019925438    0.167402908
 364   Q   :   -0.078470830   -0.214528710   -0.052463714
 365   Q   :   -0.227976688   -0.172908780   -0.046316214
 366   Q   :    0.249069998   -0.012387726   -0.166201116
 367   Q   :   -0.006906549    0.184057443    0.217241029
 368   Q   :    0.068463275   -0.282714234    0.040909577
 369   Q   :   -0.260914227    0.086760567    0.151384824
 370   Q   :    0.187515771    0.210771809   -0.180570526
 371   Q   :   -0.140679103   -0.111988134    0.201773003
 372   Q   :    0.227306193    0.114131658    0.017492840
 373   Q   :   -0.092113312   -0.006381709   -0.217950320
 374   Q   :   -0.153255668   -0.175354002   -0.175759407
 375   Q   :    0.231990742    0.103906358   -0.062779630
 376   Q   :   -0.089554630    0.069876223    0.243857286
 377   Q   :    0.126109053   -0.184877669    0.194252574
 378   Q   :    0.072119413    0.061512640   -0.218215957
 379   Q   :   -0.197398307    0.114164447    0.033601366
 380   Q   :   -0.076568958   -0.280916797   -0.022057435
 381   Q   :    0.207920324    0.099749334    0.131964827
 382   Q   :   -0.143360235    0.178237235   -0.107952371
 383   Q   :   -0.039690855    0.049567898    0.241068133
 384   Q   :   -0.150652993   -0.137815904   -0.189535587
 385   Q   :    0.182903449    0.085268462   -0.061314352
 386   Q   :   -0.028479920    0.184043549   -0.153621549
 387   Q   :   -0.052504900   -0.257566377   -0.053096558
 388   Q   :    0.083116683    0.052570284    0.205086677
 389   Q   :   -0.037242600    0.031315359    0.270589357
 390   Q   :    0.056743565    0.189003651   -0.166665312
 391   Q   :   -0.023651673   -0.204593437   -0.096710200
 392   Q   :   -0.002563942    0.261056650    0.103876024
 393   Q   :   -0.114451058   -0.089155620   -0.235705966
 394   Q   :    0.117030319   -0.165167984    0.129892109
 395   Q   :    0.211791254    0.013819451   -0.157801206
 396   Q   :   -0.142469780   -0.227829187    0.093138455
 397   Q   :   -0.071790423    0.200032496    0.062805951
 398   Q   :    0.043820179   -0.305492580   -0.044893400
 399   Q   :   -0.013197765    0.118009811    0.246107465
 400   Q   :   -0.042772987    0.187149221   -0.207296758
 401   Q   :    0.221183812   -0.105374051   -0.011426139
 402   Q   :   -0.234131782   -0.084088760    0.080413540
 403   Q   :    0.015036648    0.184988006   -0.070425001
 404   Q   :    0.058968792   -0.259738798    0.079533761
 405   Q   :    0.134087420    0.235181158    0.085710792
 406   Q   :   -0.197088497    0.031839015   -0.151178959
 407   Q   :    0.107941791    0.098346265    0.246017656
 408   Q   :   -0.250488741   -0.138800380   -0.005261991
 409   Q   :    0.145263433    0.049513021   -0.247345140
 410   Q   :    0.213366967   -0.096692439   -0.219347417
 411   Q   :   -0.177989374   -0.175460118    0.159921463
 412   Q   :   -0.032322515    0.273032083    0.062084938
 413   Q   :   -0.047927440   -0.236208196    0.098604627
 414   Q   :    0.245291903    0.099540229    0.008266095
 415   Q   :   -0.190575686    0.131771036   -0.109675657
 416   Q   :    0.048850021   -0.157483595   -0.237032565
 417   Q   :   -0.037586631   -0.101768209    0.273722606
 418   Q   :   -0.009217868    0.259691320   -0.031816251
 419   Q   :   -0.036670195    0.243761017   -0.161253105
 420   Q   :    0.244128966   -0.152345343   -0.086669875
 421   Q   :   -0.195706122   -0.089808780    0.255597148
 422   Q   :   -0.116079370    0.168269659   -0.139339098
 423   Q   :    0.262737796   -0.100503727   -0.005594174
 424   Q   :   -0.133279474   -0.063660778    0.137741053
 425   Q   :    0.038792378    0.157412575   -0.216551159
 426   Q   :   -0.133521507    0.050529539    0.228508548
 427   Q   :    0.100191407   -0.204006346   -0.004062625
 428   Q   :   -0.065338611   -0.115070020   -0.245107358
 429   Q   :   -0.078761112    0.207669121    0.112757347
 430   Q   :    0.137263582   -0.089611287    0.121957542
 431   Q   :   -0.243801855    0.000752769   -0.148279714
 432   Q   :    0.254608360    0.003346638   -0.119628310
 433   Q   :   -0.014054324   -0.000592239    0.265231099
 434   Q   :   -0.212452482   -0.095470717   -0.147311221
 435   Q   :    0.233365254   -0.096062531    0.071075014
 436   Q   :   -0.019240675    0.192406862    0.078966563
 437   Q   :   -0.059768623    0.278138569    0.084849649
 438   Q   :    0.112734938   -0.092409212   -0.262251185
 439   Q   :   -0.050810517   -0.182850119    0.183840690
 440   Q   :    0.199341017    0.176426429   -0.077177543
 441   Q   :   -0.090950599   -0.210861251   -0.150855744
 442   Q   :   -0.104969019    0.040013144    0.221864436
 443   Q   :   -0.032769071   -0.074182963    0.268416658
 444   Q   :   -0.031101972    0.276788680   -0.120678424
 445   Q   :    0.074690720   -0.199961403   -0.154583739
 446   Q   :   -0.014300927   -0.257375438    0.051631317
 447   Q   :    0.048086166    0.108869684   -0.222335809
 448   Q   :   -0.039687473    0.156219380    0.162151598
 449   Q   :   -0.072042291    0.245791911   -0.156104917
 450   Q   :   -0.190556843   -0.154011065    0.147280932
 451   Q   :    0.252892242   -0.094389170    0.002591679
 452   Q   :    0.036774051    0.202056269    0.054989610
 453   Q   :   -0.226640009   -0.169242461   -0.001515119
 454   Q   :    0.195984938   -0.055808002   -0.068423668
 455   Q   :   -0.040484110    0.238051832   -0.051954489
 456   Q   :   -0.144335292   -0.185151712    0.048782188
 457   Q   :    0.180008426   -0.036408812   -0.007094571
 458   Q   :    0.280159121   -0.183233732    0.033152632
 459   Q   :   -0.032177005    0.264321016    0.149796167
 460   Q   :   -0.243258703   -0.079946180   -0.169978746
 461   Q   :    0.149680684   -0.111253908   -0.198454074
 462   Q   :   -0.221973876   -0.031225855    0.076128737
 463   Q   :    0.074006044    0.135479951    0.108369248
 464   Q   :    0.133656548   -0.204622850   -0.050017325
 465   Q   :   -0.218149686    0.064743647   -0.059936690
 466   Q   :    0.091410742    0.140515841    0.096998077
 467   Q   :   -0.191687591    0.171560680   -0.131490851
 468   Q   :   -0.073784727   -0.167288617    0.187645016
 469   Q   :    0.250105076    0.001231609   -0.055976386
 470   Q   :   -0.184116907    0.056410703    0.166728394
 471   Q   :   -0.010816670    0.084939365   -0.254390020
 472   Q   :    0.197556079   -0.126645443    0.087679931
 473   Q   :    0.015557879   -0.199885029    0.177055224
 474   Q   :    0.203055120    0.172038843   -0.071233711
 475   Q   :   -0.217728703    0.026824929   -0.098359676
 476   Q   :    0.102840612    0.042687624    0.288443236
 477   Q   :   -0.086939808   -0.288016415   -0.080826245
 478   Q   :   -0.020693322    0.244876484   -0.217088122
 479   Q   :    0.184128559   -0.181689802    0.054681756
 480   Q   :   -0.266239176    0.000527602    0.025672092
 481   Q   :    0.082626757    0.170759334   -0.084685100
 482   Q   :   -0.116102939    0.196296842   -0.212558419
 483   Q   :   -0.191358603   -0.061447133    0.236356586
 484   Q   :    0.308840736   -0.130013825   -0.021993852
 485   Q   :    0.251744658   -0.100155392   -0.031488487
 486   Q   :   -0.232903220   -0.074481887   -0.122108113
 487   Q   :   -0.028517063    0.177901510    0.151736300
 488   Q   :   -0.046312540   -0.115029539   -0.261308648
 489   Q   :    0.245563548    0.056401730    0.124898904
 490   Q   :   -0.193536174    0.057948247    0.137258081
 491   Q   :   -0.143417363   -0.210417192    0.004276016
 492   Q   :    0.264414592    0.021737784   -0.066564038
 493   Q   :   -0.115741930    0.183293463    0.065444297
 494   Q   :   -0.203605249   -0.184657332    0.120924404
 495   Q   :    0.104603307   -0.050698403   -0.281026125
 496   Q   :    0.100547582    0.236582976    0.161428285
 497   Q   :    0.235609793    0.138669798   -0.077936040
 498   Q   :   -0.203968241   -0.054542250   -0.172697979
 499   Q   :   -0.018962944   -0.083617377    0.243934180
 500   Q   :   -0.244334555   -0.096722924   -0.056673380
 501   Q   :    0.226636393    0.012590666   -0.203036349
 502   Q   :    0.016352940    0.090101510    0.254591486
 503   Q   :    0.025558130    0.158707261   -0.247561282
 504   Q   :    0.209510968    0.024202298    0.209254084
 505   Q   :   -0.236101805   -0.195665277    0.043413661
 506   Q   :    0.090996612    0.035903584    0.275216989
 507   Q   :    0.050484263   -0.253154106   -0.167515225
 508   Q   :   -0.145169454    0.216133154   -0.117431180
 509   Q   :    0.074333875    0.253004257    0.017470985
 510   Q   :   -0.191918660   -0.145180081    0.074220453
 511   Q   :    0.107903358   -0.110659697   -0.086691604
 512   Q   :    0.154670088    0.162930861   -0.085271939
 513   Q   :    0.058574646   -0.287321084    0.070372567
 514   Q   :   -0.212522462    0.121308047    0.026444127
 515   Q   :    0.261263247    0.055273809   -0.078888588
 516   Q   :   -0.091860297   -0.274865267    0.102822146
 517   Q   :   -0.169472113    0.217807985   -0.004357661
 518   Q   :    0.173738197    0.104092097   -0.251881730
 519   Q   :    0.020653032   -0.267132667    0.098295360
 520   Q   :   -0.182817937    0.173737847    0.155883987
 521   Q   :   -0.176988630   -0.169398950   -0.081387405
 522   Q   :    0.228950543   -0.035881084    0.116063267
 523   Q   :   -0.054941083    0.212009940   -0.037227836
 524   Q   :    0.186370993   -0.144182217   -0.077330616
 525   Q   :   -0.140307173   -0.020354304    0.237678706
 526   Q   :   -0.057308166    0.153392218   -0.158311342
 527   Q   :   -0.062915798   -0.069796141   -0.302517986
 528   Q   :   -0.187434220    0.140231474    0.166583527
 529   Q   :    0.256680462   -0.074376053    0.138048861
 530   Q   :   -0.054991195   -0.277050943   -0.049617856
 531   Q   :   -0.146699256    0.180672542   -0.057631297
 532   Q   :    0.198533683    0.090315613    0.111969259
 533   Q   :   -0.037791054    0.182967275    0.202566386
 534   Q   :   -0.030539741    0.096956296   -0.290469417
 535   Q   :    0.072310580   -0.280375690    0.084520980
 536   Q   :    0.200645095    0.202857146    0.107157068
 537   Q   :   -0.258969906    0.093347983   -0.094023912
 538   Q   :    0.059023906   -0.307341565   -0.007598149
 539   Q   :   -0.128402590    0.046930308   -0.243460083
 540   Q   :   -0.053034403   -0.177140212    0.171691719
 541   Q   :    0.176073554    0.138156419    0.068501176
 542   Q   :   -0.116464782   -0.167314666    0.179965743
 543   Q   :   -0.111179898    0.253357841   -0.082601774
 544   Q   :    0.237368497   -0.089361913   -0.083816319
 545   Q   :   -0.115203061    0.126291622   -0.251627429
 546   Q   :    0.301515145    0.022383661    0.045207174
 547   Q   :   -0.171774205   -0.153798260    0.201167119
 548   Q   :    0.048736811    0.147199276    0.221094506
 549   Q   :   -0.022270037   -0.313207939   -0.039974397
 550   Q   :   -0.030179884    0.160830270   -0.183783794
 551   Q   :    0.251109017   -0.159492976    0.034985698
 552   Q   :   -0.019730913    0.255209886   -0.072488639
 553   Q   :   -0.230758779   -0.084548535    0.035000474
 554   Q   :    0.033891209    0.218328901    0.194599227
 555   Q   :   -0.141666262   -0.201996196    0.027148871
 556   Q   :    0.103505877   -0.004365755   -0.206360394
 557   Q   :    0.145813759    0.108746811   -0.196249958
 558   Q   :   -0.247905893    0.006919494    0.051817058
 559   Q   :    0.108179067   -0.094140586    0.155732396
 560   Q   :   -0.244845623   -0.031993437    0.139602831
 561   Q   :    0.173915624    0.196822778   -0.008090770
 562   Q   :    0.057739329   -0.167982589   -0.132159368
 563   Q   :   -0.240221322    0.078629809    0.124160046
 564   Q   :    0.220847734    0.128143990   -0.050298763
 565   Q   :    0.029801866   -0.201344279   -0.073303223
 566   Q   :   -0.104779985   -0.240674043   -0.095482633
 567   Q   :    0.001897391    0.248351323   -0.127694259
 568   Q   :    0.113676538   -0.002388411    0.217288322
 569   Q   :   -0.011917969    0.233424383    0.168944509
 570   Q   :    0.263309774   -0.086087758   -0.154059149
 571   Q   :   -0.248109075   -0.147634156   -0.019263001
 572   Q   :   -0.118262145    0.057142052    0.249401985
 573   Q   :    0.265038145   -0.072879685   -0.041197120
 574   Q   :   -0.143030729    0.013144005   -0.214147732
 575   Q   :    0.238220704    0.069694992   -0.069261734
 576   Q   :   -0.225669065    0.012949963   -0.145863147
 577   Q   :   -0.024643927   -0.084526219    0.217814316
 578   Q   :   -0.090338710    0.228332581   -0.094128131
 579   Q   :    0.231844047   -0.055840176    0.135004806
 580   Q   :   -0.143215079   -0.181385510   -0.031805812
 581   Q   :   -0.037008757   -0.045413553    0.254912502
 582   Q   :   -0.137239286    0.147012289   -0.166480044
 583   Q   :    0.169771315   -0.096529546   -0.084626230
 584   Q   :   -0.153713378   -0.039620371    0.235953568
 585   Q   :   -0.063170769   -0.092182275   -0.227460970
 586   Q   :    0.213162319    0.121837032   -0.003263317
 587   Q   :   -0.095861146    0.102204709    0.199935479
 588   Q   :    0.024718209   -0.270264708   -0.087699680
 589   Q   :    0.059436718    0.159550033   -0.117642734
 590   Q   :   -0.267936815    0.011936414   -0.067756276
 591   Q   :    0.095928864   -0.150799117    0.203347451
 592   Q   :    0.154408495    0.143739106   -0.137498516
 593   Q   :   -0.153372503   -0.212064377    0.065480224
 594   Q   :   -0.155642946    0.234192666   -0.170733088
 595   Q   :    0.305879816   -0.013167200    0.103974171
 596   Q   :   -0.169963993    0.171310707    0.132462494
 597   Q   :   -0.069725168   -0.154551704   -0.215502653
 598   Q   :    0.240376206   -0.012077960    0.080564169
 599   Q   :   -0.272850600    0.036526733   -0.091559893
 600   Q   :    0.065404405   -0.211034713    0.203878140
 601   Q   :    0.200591546    0.165246729   -0.105905113
 602   Q   :    0.167081158    0.189539470    0.134330271
 603   Q   :   -0.212841392   -0.142873320    0.117181926
 604   Q   :    0.039542282   -0.053321337   -0.249084676
 605   Q   :   -0.060538622   -0.273088884   -0.073946047
 606   Q   :    0.142856995    0.088164341    0.263915397
 607   Q   :   -0.086720523    0.177746703   -0.185252613
 608   Q   :   -0.051589841   -0.087377738   -0.239474095
 609   Q   :   -0.141034519    0.137484928    0.167593647
 610   Q   :    0.176178542   -0.054899591    0.076552463
 611   Q   :    0.196128467   -0.047086478   -0.209375410
 612   Q   :    0.022525498   -0.020607910    0.224903536
 613   Q   :   -0.209549048    0.062075548   -0.030084079
 614   Q   :    0.130312835   -0.157148215   -0.155747177
 615   Q   :   -0.023811335    0.292959855   -0.021020110
 616   Q   :   -0.104998130   -0.139845866    0.176718346
 617   Q   :   -0.007171743   -0.183799004   -0.205430305
 618   Q   :   -0.131032808   -0.060464064    0.262609998
 619   Q   :    0.137538447    0.244573655   -0.067129319
 620   Q   :   -0.227748126    0.096963532   -0.008125170
 621   Q   :    0.107282390   -0.234091464    0.135772722
 622   Q   :    0.136042929    0.143744550   -0.125401466
 623   Q   :    0.111793833   -0.244329871    0.024326082
 624   Q   :   -0.225545215    0.067767654   -0.168369943
 625   Q   :    0.111514059    0.182294026    0.139105827
 626   Q   :   -0.236321568   -0.169463316   -0.061737735
 627   Q   :    0.066342535    0.100421381    0.256498851
 628   Q   :    0.175491023    0.059039537   -0.198548030
 629   Q   :    0.166362143   -0.052559053    0.203190425
 630   Q   :   -0.075561650    0.250249940   -0.071807986
 631   Q   :   -0.091389241   -0.194402690   -0.129769228

Difference to translation invariance:
           :   -0.0004539353    0.0002556058    0.0001654040

Difference to rotation invariance:
           :   -0.0100195048   -0.0175043312    0.0121823231

Norm of the cartesian gradient     ...    6.3401838943
RMS gradient                       ...    0.1457224779
MAX gradient                       ...    0.3132079390

-------
TIMINGS
-------

Total SCF gradient time            ...      131.130 sec

One electron gradient       ....      20.130 sec  ( 15.4%)
RI-J Coulomb gradient       ....       7.101 sec  (  5.4%)
COSX gradient               ....      77.259 sec  ( 58.9%)
XC gradient                 ....      11.938 sec  (  9.1%)

Maximum memory used throughout the entire SCFGRAD-calculation: 571.2 MB

                            ***************************************
                            *     ORCA property calculations      *
                            ***************************************

                                    ---------------------
                                    Active property flags
                                    ---------------------
   (+) Dipole Moment


------------------------------------------------------------------------------
                       ORCA ELECTRIC PROPERTIES CALCULATION
------------------------------------------------------------------------------

Dipole Moment Calculation                       ... on
Quadrupole Moment Calculation                   ... off
Polarizability Calculation                      ... off
GBWName                                         ... final021.orca.gbw
Electron density                                ... final021.orca.scfp
The origin for moment calculation is the CENTER OF MASS  = (21.242798, 20.204008 21.247768)

-------------
DIPOLE MOMENT
-------------
                                X             Y             Z
Electronic contribution:     -0.72955      -0.59372       1.83588
Nuclear contribution   :     -9.25629     -12.23315     -13.62532
                        -----------------------------------------
Total Dipole Moment    :     -9.98583     -12.82687     -11.78944
                        -----------------------------------------
Magnitude (a.u.)       :     20.08075
Magnitude (Debye)      :     51.04120



--------------------
Rotational spectrum 
--------------------
 
Rotational constants in cm-1:     0.002418     0.001856     0.001642 
Rotational constants in MHz :    72.496024    55.639929    49.235797 

 Dipole components along the rotational axes: 
x,y,z [a.u.] :   -11.131643    13.644257     9.651795 
x,y,z [Debye]:   -28.294387    34.680945    24.532912 

 

Timings for individual modules:

Sum of individual times         ...      602.842 sec (=  10.047 min)
GTO integral calculation        ...       10.910 sec (=   0.182 min)   1.8 %
SCF iterations                  ...      456.478 sec (=   7.608 min)  75.7 %
SCF Gradient evaluation         ...      135.454 sec (=   2.258 min)  22.5 %
                             ****ORCA TERMINATED NORMALLY****
TOTAL RUN TIME: 0 days 0 hours 10 minutes 9 seconds 785 msec
